 DBCSR| CPU Multiplication driver                                           XSMM
 DBCSR| Multrec recursion limit                                              512
 DBCSR| Multiplication stack size                                           1000
 DBCSR| Maximum elements for images                                    UNLIMITED
 DBCSR| Multiplicative factor virtual images                                   1
 DBCSR| Use multiplication densification                                       T
 DBCSR| Multiplication size stacks                                             3
 DBCSR| Number of 3D layers                                               SINGLE
 DBCSR| Use MPI memory allocation                                              T
 DBCSR| Use RMA algorithm                                                      F
 DBCSR| Use Communication thread                                               T
 DBCSR| Communication thread load                                             87


  **** **** ******  **  PROGRAM STARTED AT               2021-07-19 08:53:01.412
 ***** ** ***  *** **   PROGRAM STARTED ON                                 n0314
 **    ****   ******    PROGRAM STARTED BY                             ka_bh5670
 ***** **    ** ** **   PROGRAM PROCESS ID                               2977583
  **** **  *******  **  PROGRAM STARTED IN /tmp/ka_bh5670.3062160/bh5670/sim/000
                                           007

 CP2K| version string:                                          CP2K version 7.1
 CP2K| source code revision number:                                  git:e635599
 CP2K| cp2kflags: libint fftw3 libxc parallel mpi3 scalapack xsmm spglib        
 CP2K| is freely available from                            https://www.cp2k.org/
 CP2K| Program compiled at                          Do 6. Mai 20:02:55 CEST 2021
 CP2K| Program compiled on                                                 n1731
 CP2K| Program compiled for                                                local
 CP2K| Data directory path    /lustre/home/ka/ka_int/ka_bh5670/cp2k/cp2k-7.1/dat
 CP2K| Input file name                                                diag_3.inp

 GLOBAL| Force Environment number                                              1
 GLOBAL| Basis set file name                                 BASIS_CC_AUG_RI_NEW
 GLOBAL| Potential file name                                           POTENTIAL
 GLOBAL| MM Potential file name                                     MM_POTENTIAL
 GLOBAL| Coordinate file name                               dsgdb9nsd_000007.xyz
 GLOBAL| Method name                                                        CP2K
 GLOBAL| Project name                                                          3
 GLOBAL| Preferred FFT library                                             FFTW3
 GLOBAL| Preferred diagonalization lib.                                       SL
 GLOBAL| Run type                                                         ENERGY
 GLOBAL| All-to-all communication in single precision                          F
 GLOBAL| FFTs using library dependent lengths                                  T
 GLOBAL| Global print level                                                  LOW
 GLOBAL| MPI I/O enabled                                                       T
 GLOBAL| Total number of message passing processes                            16
 GLOBAL| Number of threads for this process                                    1
 GLOBAL| This output is from process                                           0
 GLOBAL| CPU model name                 Intel(R) Xeon(R) Gold 6252 CPU @ 2.10GHz
 GLOBAL| CPUID                                                              1003

 MEMORY| system memory details [Kb]
 MEMORY|                        rank 0           min           max       average
 MEMORY| MemTotal            196673224     196673224     196673224     196673224
 MEMORY| MemFree             170942388     170942388     170942388     170942388
 MEMORY| Buffers                     0             0             0             0
 MEMORY| Cached                4908168       4908168       4908168       4908168
 MEMORY| Slab                  1931240       1931240       1931240       1931240
 MEMORY| SReclaimable           512608        512608        512608        512608
 MEMORY| MemLikelyFree       176363164     176363164     176363164     176363164


 GENERATE|  Preliminary Number of Bonds generated:                             0
 GENERATE|  Achieved consistency in connectivity generation.

 *******************************************************************************
 *******************************************************************************
 **                                                                           **
 **     #####                         ##              ##                      **
 **    ##   ##            ##          ##              ##                      **
 **   ##     ##                       ##            ######                    **
 **   ##     ##  ##   ##  ##   #####  ##  ##   ####   ##    #####    #####    **
 **   ##     ##  ##   ##  ##  ##      ## ##   ##      ##   ##   ##  ##   ##   **
 **   ##  ## ##  ##   ##  ##  ##      ####     ###    ##   ######   ######    **
 **    ##  ###   ##   ##  ##  ##      ## ##      ##   ##   ##       ##        **
 **     #######   #####   ##   #####  ##  ##  ####    ##    #####   ##        **
 **           ##                                                    ##        **
 **                                                                           **
 **                                                ... make the atoms dance   **
 **                                                                           **
 **            Copyright (C) by CP2K developers group (2000 - 2019)           **
 **                                                                           **
 *******************************************************************************

 *** WARNING in qs_environment.F:1310 :: More added MOs requested than ***
 *** available. The full set of unoccupied MOs will be used.           ***



 TOTAL NUMBERS AND MAXIMUM NUMBERS

  Total number of            - Atomic kinds:                                   2
                             - Atoms:                                          8
                             - Shell sets:                                    52
                             - Shells:                                        82
                             - Primitive Cartesian functions:                110
                             - Cartesian basis functions:                    260
                             - Spherical basis functions:                    230

  Maximum angular momentum of the orbital basis functions:                     3


 SCF PARAMETERS         Density guess:                                   RESTART
                        --------------------------------------------------------
                        max_scf:                                             100
                        max_scf_history:                                       0
                        max_diis:                                              4
                        --------------------------------------------------------
                        eps_scf:                                        1.00E-06
                        eps_scf_history:                                0.00E+00
                        eps_diis:                                       1.00E-01
                        eps_eigval:                                     1.00E-05
                        --------------------------------------------------------
                        level_shift [a.u.]:                                 0.00
                        added MOs                                       221    0
                        --------------------------------------------------------
                        Mixing method:                            BROYDEN_MIXING
                                                charge density mixing in g-space
                        --------------------------------------------------------
                        No outer SCF
 
 RI-RPA| using GPW style
 

 Number of electrons:                                                         18
 Number of occupied orbitals:                                                  9
 Number of molecular orbitals:                                               230

 Number of orbital functions:                                                230
 Number of independent orbital functions:                                    230

 Extrapolation method: initial_guess


 SCF WAVEFUNCTION OPTIMIZATION

  Step     Update method      Time    Convergence         Total energy    Change
  ------------------------------------------------------------------------------
     1 NoMix/Diag. 0.20E+00    0.8     3.5758E-09       -79.7312779269 -7.97E+01

  *** SCF run converged in     1 steps ***


  Electronic density on regular grids:        -14.5208155920        3.4791844080
  Core density on regular grids:               18.0000000000       -0.0000000000
  Hard and soft densities (Lebedev):         -125.9377472918     -122.4585629206
  Total Rho_soft + Rho1_hard - Rho1_soft      -17.9999999632
  Total charge density (r-space):               0.0000000368
  Total Rho_soft + Rho0_soft (g-space):         0.0000000038

  Overlap energy of the core charge distribution:               0.00000468880597
  Self energy of the core charge distribution:                -66.68833699131878
  Core Hamiltonian energy:                                    -11.51815506965621
  Hartree energy:                                              27.03454125606104
  Exchange-correlation energy:                                 -6.04916227809040

  GAPW| Exc from hard and soft atomic rho1:                    -6.90294963752553
  GAPW| local Eh = 1 center integrals:                        -15.60721989522374

  Total energy:                                               -79.73127792694764
  
  Eigenvalues of the occupied subspace spin            1
 ---------------------------------------------
      -9.87295059      -9.87281728      -0.68096608      -0.55270496
      -0.38597636      -0.38597173      -0.32665587      -0.29887036
      -0.29886295
 Fermi Energy [eV] :   -8.132475
  
  Lowest eigenvalues of the unoccupied subspace spin            1
 ---------------------------------------------
      -0.01463826       0.00745536       0.01639377       0.01653447
       0.04506602       0.04557913       0.05624180       0.07128403
       0.07137615       0.08403380


 RI-RPA section
 --------------

  Used number of processes per group:                                          1
  Maximum allowed memory usage per MPI processes:                    4000.00 MiB
  GPW_INFO| Density cutoff [a.u.]:                                         150.0
  GPW_INFO| Relative density cutoff [a.u.]:                                 25.0
  RI_INFO| Cholesky decomposition group size:                                  1
  RI_INFO| Number of groups for auxiliary basis functions                     16
  RI_INFO| Occupied  basis set size:                                           9
  RI_INFO| Virtual   basis set size:                                         221
  RI_INFO| Auxiliary basis set size:                                         488
  RI_INFO| Total memory for (ia|K) integrals:                           7.41 MiB
  RI_INFO| Total memory for G0W0-(nm|K) integrals:                     24.83 MiB
  RI_INFO| Minimum required memory per MPI process:                     0.94 MiB
  RI_INFO| Available memory per MPI process:                         3629.00 MiB
  RI_INFO| Group size for frequency integration:                               8
  INTEG_INFO| Clenshaw-Curtius quadrature
  INTEG_INFO| Number of integration points:                                   50
  INTEG_INFO| Number of integration points per RPA group:                     25
  MATRIX_INFO| Number row processes:                                           4
  MATRIX_INFO| Number column processes:                                        2
  MATRIX_INFO| Row block size:                                               248
  MATRIX_INFO| Column block size:                                            122
  INTEG_INFO| Scaling parameter:                                         0.20000
  PERFORMANCE| PDGEMM flop rate (Gflops / MPI rank):                       11.84
  
  GW quasiparticle energies
  -------------------------
   
  The GW quasiparticle energies are calculated according to: 
  E_GW = E_SCF + Z * ( Sigc(E_SCF) + Sigx - vxc )
   
  The energy unit of the following table is eV.  Sigc_fit is a very conservative
  estimate of the statistical error of the fitting.
   
            MO      E_SCF       Sigc   Sigc_fit   Sigx-vxc          Z       E_GW
     1 ( occ )   -268.657    -13.316      0.000    -35.360      1.000   -317.332
     2 ( occ )   -268.653     -9.071      0.000    -35.346      1.000   -313.070
     3 ( occ )    -18.530      5.106      0.000     -8.893      1.000    -22.316
     4 ( occ )    -15.040      3.806      0.000     -7.680      1.000    -18.914
     5 ( occ )    -10.503      1.419      0.000     -5.522      1.000    -14.606
     6 ( occ )    -10.503      1.419      0.000     -5.522      1.000    -14.606
     7 ( occ )     -8.889      0.953      0.000     -4.642      1.000    -12.578
     8 ( occ )     -8.133      0.768      0.000     -4.866      1.000    -12.231
     9 ( occ )     -8.132      0.768      0.000     -4.866      1.000    -12.230
    10 ( vir )     -0.398     -0.597      0.000      2.028      1.000      1.033
    11 ( vir )      0.203     -0.461      0.000      1.647      1.000      1.389
    12 ( vir )      0.446     -0.358      0.000      1.332      1.000      1.420
    13 ( vir )      0.450     -0.359      0.000      1.336      1.000      1.427
    14 ( vir )      1.226     -0.295      0.000      1.142      1.000      2.073
    15 ( vir )      1.240     -0.299      0.000      1.155      1.000      2.096
    16 ( vir )      1.530     -0.442      0.000      1.602      1.000      2.690
    17 ( vir )      1.940     -0.449      0.000      1.718      1.000      3.208
    18 ( vir )      1.942     -0.454      0.000      1.730      1.000      3.219
    19 ( vir )      2.287     -0.401      0.000      1.274      1.000      3.159
    20 ( vir )      2.362     -0.462      0.000      1.417      1.000      3.317
    21 ( vir )      2.630     -0.510      0.000      1.568      1.000      3.688
    22 ( vir )      2.634     -0.508      0.000      1.564      1.000      3.690
    23 ( vir )      3.326     -0.656      0.000      2.118      1.000      4.787
    24 ( vir )      3.537     -0.896      0.000      2.550      1.000      5.190
    25 ( vir )      3.558     -0.891      0.000      2.535      1.000      5.202
    26 ( vir )      3.612     -1.158      0.000      3.334      1.000      5.788
    27 ( vir )      3.612     -1.157      0.000      3.333      1.000      5.788
    28 ( vir )      5.195     -1.665      0.000      3.906      1.000      7.436
    29 ( vir )      5.237     -0.742      0.000      2.509      1.000      7.005
   
  GW HOMO-LUMO gap (eV)                                                    13.26
  
  PERFORMANCE| PDGEMM flop rate (Gflops / MPI rank):                       16.28
  
  GW quasiparticle energies
  -------------------------
   
  The GW quasiparticle energies are calculated according to: 
  E_GW = E_SCF + Z * ( Sigc(E_SCF) + Sigx - vxc )
   
  The energy unit of the following table is eV.  Sigc_fit is a very conservative
  estimate of the statistical error of the fitting.
   
            MO      E_SCF       Sigc   Sigc_fit   Sigx-vxc          Z       E_GW
     1 ( occ )   -317.332      0.759      0.000    -35.360      1.000   -303.258
     2 ( occ )   -313.070      8.226      0.000    -35.346      1.000   -295.774
     3 ( occ )    -22.316      3.275      0.000     -8.893      1.000    -24.148
     4 ( occ )    -18.914      2.075      0.000     -7.680      1.000    -20.645
     5 ( occ )    -14.606      0.575      0.000     -5.522      1.000    -15.450
     6 ( occ )    -14.606      0.575      0.000     -5.522      1.000    -15.450
     7 ( occ )    -12.578      0.317      0.000     -4.642      1.000    -13.214
     8 ( occ )    -12.231      0.142      0.000     -4.866      1.000    -12.857
     9 ( occ )    -12.230      0.142      0.000     -4.866      1.000    -12.857
    10 ( vir )      1.033     -0.499      0.000      2.028      1.000      1.131
    11 ( vir )      1.389     -0.378      0.000      1.647      1.000      1.473
    12 ( vir )      1.420     -0.295      0.000      1.332      1.000      1.483
    13 ( vir )      1.427     -0.296      0.000      1.336      1.000      1.490
    14 ( vir )      2.073     -0.244      0.000      1.142      1.000      2.124
    15 ( vir )      2.096     -0.247      0.000      1.155      1.000      2.148
    16 ( vir )      2.690     -0.361      0.000      1.602      1.000      2.772
    17 ( vir )      3.208     -0.363      0.000      1.718      1.000      3.295
    18 ( vir )      3.219     -0.367      0.000      1.730      1.000      3.305
    19 ( vir )      3.159     -0.338      0.000      1.274      1.000      3.222
    20 ( vir )      3.317     -0.389      0.000      1.417      1.000      3.391
    21 ( vir )      3.688     -0.428      0.000      1.568      1.000      3.769
    22 ( vir )      3.690     -0.427      0.000      1.564      1.000      3.771
    23 ( vir )      4.787     -0.536      0.000      2.118      1.000      4.907
    24 ( vir )      5.190     -0.754      0.000      2.550      1.000      5.333
    25 ( vir )      5.202     -0.750      0.000      2.535      1.000      5.344
    26 ( vir )      5.788     -0.967      0.000      3.334      1.000      5.979
    27 ( vir )      5.788     -0.967      0.000      3.333      1.000      5.979
    28 ( vir )      7.436     -1.432      0.000      3.906      1.000      7.669
    29 ( vir )      7.005     -0.575      0.000      2.509      1.000      7.172
   
  GW HOMO-LUMO gap (eV)                                                    13.99
  
  PERFORMANCE| PDGEMM flop rate (Gflops / MPI rank):                       18.19
  
  GW quasiparticle energies
  -------------------------
   
  The GW quasiparticle energies are calculated according to: 
  E_GW = E_SCF + Z * ( Sigc(E_SCF) + Sigx - vxc )
   
  The energy unit of the following table is eV.  Sigc_fit is a very conservative
  estimate of the statistical error of the fitting.
   
            MO      E_SCF       Sigc   Sigc_fit   Sigx-vxc          Z       E_GW
     1 ( occ )   -303.258     -9.048      0.000    -35.360      1.000   -313.064
     2 ( occ )   -295.774      0.634      0.000    -35.346      1.000   -303.366
     3 ( occ )    -24.148      2.976      0.000     -8.893      1.000    -24.446
     4 ( occ )    -20.645      1.867      0.000     -7.680      1.000    -20.853
     5 ( occ )    -15.450      0.474      0.000     -5.522      1.000    -15.552
     6 ( occ )    -15.450      0.474      0.000     -5.522      1.000    -15.551
     7 ( occ )    -13.214      0.230      0.000     -4.642      1.000    -13.301
     8 ( occ )    -12.857      0.064      0.000     -4.866      1.000    -12.935
     9 ( occ )    -12.857      0.064      0.000     -4.866      1.000    -12.934
    10 ( vir )      1.131     -0.490      0.000      2.028      1.000      1.140
    11 ( vir )      1.473     -0.370      0.000      1.647      1.000      1.480
    12 ( vir )      1.483     -0.289      0.000      1.332      1.000      1.489
    13 ( vir )      1.490     -0.290      0.000      1.336      1.000      1.496
    14 ( vir )      2.124     -0.239      0.000      1.142      1.000      2.129
    15 ( vir )      2.148     -0.242      0.000      1.155      1.000      2.153
    16 ( vir )      2.772     -0.352      0.000      1.602      1.000      2.780
    17 ( vir )      3.295     -0.354      0.000      1.718      1.000      3.303
    18 ( vir )      3.305     -0.359      0.000      1.730      1.000      3.314
    19 ( vir )      3.222     -0.332      0.000      1.274      1.000      3.228
    20 ( vir )      3.391     -0.382      0.000      1.417      1.000      3.398
    21 ( vir )      3.769     -0.420      0.000      1.568      1.000      3.777
    22 ( vir )      3.771     -0.419      0.000      1.564      1.000      3.779
    23 ( vir )      4.907     -0.525      0.000      2.118      1.000      4.918
    24 ( vir )      5.333     -0.740      0.000      2.550      1.000      5.346
    25 ( vir )      5.344     -0.736      0.000      2.535      1.000      5.357
    26 ( vir )      5.979     -0.948      0.000      3.334      1.000      5.998
    27 ( vir )      5.979     -0.948      0.000      3.333      1.000      5.997
    28 ( vir )      7.669     -1.409      0.000      3.906      1.000      7.692
    29 ( vir )      7.172     -0.559      0.000      2.509      1.000      7.188
   
  GW HOMO-LUMO gap (eV)                                                    14.07
  
  PERFORMANCE| PDGEMM flop rate (Gflops / MPI rank):                       18.88
  
  GW quasiparticle energies
  -------------------------
   
  The GW quasiparticle energies are calculated according to: 
  E_GW = E_SCF + Z * ( Sigc(E_SCF) + Sigx - vxc )
   
  The energy unit of the following table is eV.  Sigc_fit is a very conservative
  estimate of the statistical error of the fitting.
   
            MO      E_SCF       Sigc   Sigc_fit   Sigx-vxc          Z       E_GW
     1 ( occ )   -313.064      2.367      0.000    -35.360      1.000   -301.650
     2 ( occ )   -303.366     -4.771      0.000    -35.346      1.000   -308.771
     3 ( occ )    -24.446      2.939      0.000     -8.893      1.000    -24.484
     4 ( occ )    -20.853      1.842      0.000     -7.680      1.000    -20.878
     5 ( occ )    -15.552      0.462      0.000     -5.522      1.000    -15.564
     6 ( occ )    -15.551      0.462      0.000     -5.522      1.000    -15.563
     7 ( occ )    -13.301      0.219      0.000     -4.642      1.000    -13.312
     8 ( occ )    -12.935      0.055      0.000     -4.866      1.000    -12.944
     9 ( occ )    -12.934      0.055      0.000     -4.866      1.000    -12.943
    10 ( vir )      1.140     -0.489      0.000      2.028      1.000      1.141
    11 ( vir )      1.480     -0.369      0.000      1.647      1.000      1.481
    12 ( vir )      1.489     -0.288      0.000      1.332      1.000      1.489
    13 ( vir )      1.496     -0.289      0.000      1.336      1.000      1.497
    14 ( vir )      2.129     -0.238      0.000      1.142      1.000      2.130
    15 ( vir )      2.153     -0.241      0.000      1.155      1.000      2.154
    16 ( vir )      2.780     -0.351      0.000      1.602      1.000      2.781
    17 ( vir )      3.303     -0.353      0.000      1.718      1.000      3.304
    18 ( vir )      3.314     -0.358      0.000      1.730      1.000      3.315
    19 ( vir )      3.228     -0.331      0.000      1.274      1.000      3.229
    20 ( vir )      3.398     -0.381      0.000      1.417      1.000      3.398
    21 ( vir )      3.777     -0.419      0.000      1.568      1.000      3.778
    22 ( vir )      3.779     -0.418      0.000      1.564      1.000      3.780
    23 ( vir )      4.918     -0.524      0.000      2.118      1.000      4.919
    24 ( vir )      5.346     -0.738      0.000      2.550      1.000      5.348
    25 ( vir )      5.357     -0.734      0.000      2.535      1.000      5.359
    26 ( vir )      5.998     -0.946      0.000      3.334      1.000      6.000
    27 ( vir )      5.997     -0.946      0.000      3.333      1.000      5.999
    28 ( vir )      7.692     -1.406      0.000      3.906      1.000      7.695
    29 ( vir )      7.188     -0.557      0.000      2.509      1.000      7.189
   
  GW HOMO-LUMO gap (eV)                                                    14.08
  
  PERFORMANCE| PDGEMM flop rate (Gflops / MPI rank):                       18.89
  
  GW quasiparticle energies
  -------------------------
   
  The GW quasiparticle energies are calculated according to: 
  E_GW = E_SCF + Z * ( Sigc(E_SCF) + Sigx - vxc )
   
  The energy unit of the following table is eV.  Sigc_fit is a very conservative
  estimate of the statistical error of the fitting.
   
            MO      E_SCF       Sigc   Sigc_fit   Sigx-vxc          Z       E_GW
     1 ( occ )   -301.650      1.372      0.000    -35.360      1.000   -302.645
     2 ( occ )   -308.771      1.078      0.000    -35.346      1.000   -302.921
     3 ( occ )    -24.484      2.935      0.000     -8.893      1.000    -24.488
     4 ( occ )    -20.878      1.840      0.000     -7.680      1.000    -20.881
     5 ( occ )    -15.564      0.460      0.000     -5.522      1.000    -15.565
     6 ( occ )    -15.563      0.460      0.000     -5.522      1.000    -15.565
     7 ( occ )    -13.312      0.218      0.000     -4.642      1.000    -13.313
     8 ( occ )    -12.944      0.054      0.000     -4.866      1.000    -12.945
     9 ( occ )    -12.943      0.054      0.000     -4.866      1.000    -12.944
    10 ( vir )      1.141     -0.489      0.000      2.028      1.000      1.141
    11 ( vir )      1.481     -0.369      0.000      1.647      1.000      1.481
    12 ( vir )      1.489     -0.288      0.000      1.332      1.000      1.490
    13 ( vir )      1.497     -0.289      0.000      1.336      1.000      1.497
    14 ( vir )      2.130     -0.238      0.000      1.142      1.000      2.130
    15 ( vir )      2.154     -0.241      0.000      1.155      1.000      2.154
    16 ( vir )      2.781     -0.351      0.000      1.602      1.000      2.781
    17 ( vir )      3.304     -0.353      0.000      1.718      1.000      3.304
    18 ( vir )      3.315     -0.358      0.000      1.730      1.000      3.315
    19 ( vir )      3.229     -0.331      0.000      1.274      1.000      3.229
    20 ( vir )      3.398     -0.381      0.000      1.417      1.000      3.398
    21 ( vir )      3.778     -0.419      0.000      1.568      1.000      3.778
    22 ( vir )      3.780     -0.418      0.000      1.564      1.000      3.780
    23 ( vir )      4.919     -0.524      0.000      2.118      1.000      4.920
    24 ( vir )      5.348     -0.738      0.000      2.550      1.000      5.348
    25 ( vir )      5.359     -0.734      0.000      2.535      1.000      5.359
    26 ( vir )      6.000     -0.946      0.000      3.334      1.000      6.000
    27 ( vir )      5.999     -0.946      0.000      3.333      1.000      6.000
    28 ( vir )      7.695     -1.406      0.000      3.906      1.000      7.695
    29 ( vir )      7.189     -0.557      0.000      2.509      1.000      7.190
   
  GW HOMO-LUMO gap (eV)                                                    14.09
  

  Total RI-RPA Time=                                                    4.901546
  RI-RPA energy  =                                             -0.60890763324203

  Total EXX Time=                                                       0.232837
  EXX energy  =                                                 0.00000000000000

 ENERGY| Total FORCE_EVAL ( QS ) energy (a.u.):              -67.388073644429880


 -------------------------------------------------------------------------------
 -                                                                             -
 -                                DBCSR STATISTICS                             -
 -                                                                             -
 -------------------------------------------------------------------------------
 COUNTER                                    TOTAL       BLAS       SMM       ACC
 flops     1 x    14 x    14                25088       0.0%    100.0%      0.0%
 flops     1 x    14 x    15                26880       0.0%    100.0%      0.0%
 flops     1 x    15 x    14                26880       0.0%    100.0%      0.0%
 flops     1 x    15 x    15                28800       0.0%    100.0%      0.0%
 flops     2 x    14 x    14                50176       0.0%    100.0%      0.0%
 flops     2 x    14 x    15                53760       0.0%    100.0%      0.0%
 flops     2 x    15 x    14                53760       0.0%    100.0%      0.0%
 flops     1 x    16 x    14                57344       0.0%    100.0%      0.0%
 flops     1 x    14 x    16                57344       0.0%    100.0%      0.0%
 flops     2 x    15 x    15                57600       0.0%    100.0%      0.0%
 flops     1 x    16 x    15                61440       0.0%    100.0%      0.0%
 flops     1 x    15 x    16                61440       0.0%    100.0%      0.0%
 flops     2 x    16 x    14               114688       0.0%    100.0%      0.0%
 flops     2 x    14 x    16               114688       0.0%    100.0%      0.0%
 flops     2 x    16 x    15               122880       0.0%    100.0%      0.0%
 flops     2 x    15 x    16               122880       0.0%    100.0%      0.0%
 flops     1 x    16 x    16               131072       0.0%    100.0%      0.0%
 flops     2 x    16 x    16               262144       0.0%    100.0%      0.0%
 flops    46 x    32 x    46               541696       0.0%    100.0%      0.0%
 flops    46 x    32 x    23               812544       0.0%    100.0%      0.0%
 flops    23 x    32 x    46               812544       0.0%    100.0%      0.0%
 flops    46 x    46 x    38               964896       0.0%    100.0%      0.0%
 flops    23 x    46 x    38               964896       0.0%    100.0%      0.0%
 flops    46 x    23 x    38               964896       0.0%    100.0%      0.0%
 flops    23 x    46 x    46              1168032       0.0%    100.0%      0.0%
 flops    46 x    46 x    23              1168032       0.0%    100.0%      0.0%
 flops     8 x    14 x    14              1204224       0.0%    100.0%      0.0%
 flops    23 x    32 x    23              1218816       0.0%    100.0%      0.0%
 flops     8 x    14 x    15              1290240       0.0%    100.0%      0.0%
 flops     8 x    15 x    14              1290240       0.0%    100.0%      0.0%
 flops     1 x     1 x     1              1294336       0.0%    100.0%      0.0%
 flops     8 x    15 x    15              1382400       0.0%    100.0%      0.0%
 flops    23 x    23 x    38              1688568       0.0%    100.0%      0.0%
 flops    23 x    46 x    23              1752048       0.0%    100.0%      0.0%
 flops    46 x    46 x    46              2336064       0.0%    100.0%      0.0%
 flops    46 x    46 x    69              2336064       0.0%    100.0%      0.0%
 flops    69 x    46 x    46              2336064       0.0%    100.0%      0.0%
 flops    46 x    69 x    46              2336064       0.0%    100.0%      0.0%
 flops     8 x    16 x    14              2752512       0.0%    100.0%      0.0%
 flops     8 x    14 x    16              2752512       0.0%    100.0%      0.0%
 flops     8 x    16 x    15              2949120       0.0%    100.0%      0.0%
 flops     8 x    15 x    16              2949120       0.0%    100.0%      0.0%
 flops    69 x    69 x    46              3504096       0.0%    100.0%      0.0%
 flops    69 x    46 x    69              3504096       0.0%    100.0%      0.0%
 flops    46 x    69 x    69              3504096       0.0%    100.0%      0.0%
 flops    46 x    46 x    64              4875264       0.0%    100.0%      0.0%
 flops    23 x    46 x    64              4875264       0.0%    100.0%      0.0%
 flops    46 x    23 x    64              4875264       0.0%    100.0%      0.0%
 flops    69 x    69 x    69              5256144       0.0%    100.0%      0.0%
 flops     8 x    16 x    16              6291456       0.0%    100.0%      0.0%
 flops    23 x    23 x    64              8531712       0.0%    100.0%      0.0%
 flops     4 x    14 x    14             11440128       0.0%    100.0%      0.0%
 flops     4 x    14 x    15             12257280       0.0%    100.0%      0.0%
 flops     4 x    15 x    14             12257280       0.0%    100.0%      0.0%
 flops     4 x    15 x    15             13132800       0.0%    100.0%      0.0%
 flops    29 x     6 x    46             15623808       0.0%    100.0%      0.0%
 flops     9 x    29 x    46             23435712       0.0%    100.0%      0.0%
 flops    29 x     6 x    23             23435712       0.0%    100.0%      0.0%
 flops     4 x    16 x    14             26148864       0.0%    100.0%      0.0%
 flops     4 x    14 x    16             26148864       0.0%    100.0%      0.0%
 flops     4 x    16 x    15             28016640       0.0%    100.0%      0.0%
 flops     4 x    15 x    16             28016640       0.0%    100.0%      0.0%
 flops     9 x    29 x    23             35153568       0.0%    100.0%      0.0%
 flops     4 x    16 x    16             59768832       0.0%    100.0%      0.0%
 flops    46 x     9 x    46             74347776       0.0%    100.0%      0.0%
 flops    46 x     9 x    23            111521664       0.0%    100.0%      0.0%
 flops    23 x     9 x    46            111521664       0.0%    100.0%      0.0%
 flops     9 x    32 x    46            155160576       0.0%    100.0%      0.0%
 flops    23 x     9 x    23            167282496       0.0%    100.0%      0.0%
 flops    16 x    14 x    14            204316672       0.0%    100.0%      0.0%
 flops    16 x    14 x    15            218910720       0.0%    100.0%      0.0%
 flops    16 x    15 x    14            218910720       0.0%    100.0%      0.0%
 flops     9 x    32 x    23            232740864       0.0%    100.0%      0.0%
 flops    16 x    15 x    15            234547200       0.0%    100.0%      0.0%
 flops    46 x    29 x    46            239565056       0.0%    100.0%      0.0%
 flops    46 x    29 x    23            359347584       0.0%    100.0%      0.0%
 flops    23 x    29 x    46            359347584       0.0%    100.0%      0.0%
 flops    16 x    16 x    14            467009536       0.0%    100.0%      0.0%
 flops    16 x    14 x    16            467009536       0.0%    100.0%      0.0%
 flops    16 x    16 x    15            500367360       0.0%    100.0%      0.0%
 flops    16 x    15 x    16            500367360       0.0%    100.0%      0.0%
 flops    23 x    29 x    23            539021376       0.0%    100.0%      0.0%
 flops    29 x    32 x    46            583288832       0.0%    100.0%      0.0%
 flops    29 x    32 x    23            874933248       0.0%    100.0%      0.0%
 flops    16 x    16 x    16           1067450368       0.0%    100.0%      0.0%
 flops inhomo. stacks                     8388608     100.0%      0.0%      0.0%
 flops total                         8.096105E+09       0.1%     99.9%      0.0%
 flops max/rank                    555.757500E+06       1.5%     98.5%      0.0%
 matmuls inhomo. stacks                      1024     100.0%      0.0%      0.0%
 matmuls total                            1415840       0.1%     99.9%      0.0%
 number of processed stacks                  9844       0.0%    100.0%      0.0%
 average stack size                                   512.0     143.8       0.0
 marketing flops                     8.040186E+09
 -------------------------------------------------------------------------------
 # multiplications                            133
 max memory usage/rank             399.011840E+06
 # max total images/rank                        1
 # max 3D layers                                1
 # MPI messages exchanged                     544
 MPI messages size (bytes):
  total size                        26.048800E+06
  min size                           0.000000E+00
  max size                         546.560000E+03
  average size                      47.883824E+03
 MPI breakdown and total messages size (bytes):
             size <=      128                  72                        0
       128 < size <=     8192                  32                    75776
      8192 < size <=    32768                 288                  6215520
     32768 < size <=   131072                 120                  4371840
    131072 < size <=  4194304                  32                 15385664
   4194304 < size <= 16777216                   0                        0
  16777216 < size                               0                        0
 -------------------------------------------------------------------------------
 -                                                                             -
 -                      DBCSR MESSAGE PASSING PERFORMANCE                      -
 -                                                                             -
 -------------------------------------------------------------------------------
 ROUTINE             CALLS      AVE VOLUME [Bytes]
 MP_Group              137
 MP_Bcast              114                     10.
 MP_Allreduce          746                     15.
 MP_Alltoall          1160                  15869.
 MP_Wait              3352
 MP_comm_split          28
 MP_ISend              942                  10346.
 MP_IRecv              942                  10317.
 MP_Memory            4882
 -------------------------------------------------------------------------------

 MEMORY| Estimated peak process memory [MiB]                                 384

 -------------------------------------------------------------------------------
 -                                                                             -
 -                         MESSAGE PASSING PERFORMANCE                         -
 -                                                                             -
 -------------------------------------------------------------------------------

 ROUTINE             CALLS      AVE VOLUME [Bytes]
 MP_Group                6
 MP_Bcast              599                9428580.
 MP_Allreduce          560                  18011.
 MP_Sync                14
 MP_Alltoall            54                7060184.
 MP_SendRecv            30                  13274.
 MP_ISendRecv          240                 139888.
 MP_Wait              1336
 MP_comm_split          11
 MP_ISend              943                 107641.
 MP_IRecv              945                 110644.
 MP_Recv                 7                  58880.
 -------------------------------------------------------------------------------


 -------------------------------------------------------------------------------
 -                                                                             -
 -                           R E F E R E N C E S                               -
 -                                                                             -
 -------------------------------------------------------------------------------
 
 CP2K version 7.1, the CP2K developers group (2019).
 CP2K is freely available from https://www.cp2k.org/ .

 Schuett, Ole; Messmer, Peter; Hutter, Juerg; VandeVondele, Joost. 
 Electronic Structure Calculations on Graphics Processing Units, John
 Wiley & Sons, Ltd, 173-190 (2016). 
 GPU-Accelerated Sparse Matrix-Matrix Multiplication for
 Linear Scaling Density Functional Theory.
 https://dx.doi.org/10.1002/9781118670712.ch8

 Del Ben, M; Schuett, O; Wentz, T; Messmer, P; Hutter, J;
 VandeVondele, J. 
 COMPUTER PHYSICS COMMUNICATIONS, 187, 120-129 (2015). 
 Enabling simulation at the fifth rung of DFT: Large scale RPA
 calculations with excellent time to solution.
 https://dx.doi.org/10.1016/j.cpc.2014.10.021

 Borstnik, U; VandeVondele, J; Weber, V; Hutter, J. 
 PARALLEL COMPUTING, 40 (5-6), 47-58 (2014). 
 Sparse matrix multiplication: The distributed block-compressed sparse
 row library.
 https://dx.doi.org/10.1016/j.parco.2014.03.012

 Hutter, J; Iannuzzi, M; Schiffmann, F; VandeVondele, J. 
 WIREs Comput Mol Sci., 4 (1), 15-25 (2014). 
 CP2K: atomistic simulations of condensed matter systems.
 https://dx.doi.org/10.1002/wcms.1159

 Del Ben, M; Hutter, J; VandeVondele, J. 
 JOURNAL OF CHEMICAL THEORY AND COMPUTATION, 9 (6), 2654-2671 (2013). 
 Electron Correlation in the Condensed Phase from a Resolution of
 Identity Approach Based on the Gaussian and Plane Waves Scheme.
 https://dx.doi.org/10.1021/ct4002202

 Del Ben, M; Hutter, J; VandeVondele, J. 
 JOURNAL OF CHEMICAL THEORY AND COMPUTATION, 8 (11), 4177-4188 (2012). 
 Second-Order Moller-Plesset Perturbation Theory in the Condensed Phase:
 An Efficient and Massively Parallel Gaussian and Plane Waves Approach.
 https://dx.doi.org/10.1021/ct300531w

 Guidon, M; Hutter, J; VandeVondele, J. 
 JOURNAL OF CHEMICAL THEORY AND COMPUTATION, 5 (11), 3010-3021 (2009). 
 Robust Periodic Hartree-Fock Exchange for Large-Scale Simulations Using
 Gaussian Basis Sets.
 https://dx.doi.org/10.1021/ct900494g

 Guidon, M; Schiffmann, F; Hutter, J; VandeVondele, J. 
 JOURNAL OF CHEMICAL PHYSICS, 128 (21), 214104 (2008). 
 Ab initio molecular dynamics using hybrid density functionals.
 https://dx.doi.org/10.1063/1.2931945

 Frigo, M; Johnson, SG. 
 PROCEEDINGS OF THE IEEE, 93 (2), 216-231 (2005). 
 The design and implementation of FFTW3.
 https://dx.doi.org/10.1109/JPROC.2004.840301

 Lippert, G; Hutter, J; Parrinello, M. 
 THEORETICAL CHEMISTRY ACCOUNTS, 103 (2), 124-140 (1999). 
 The Gaussian and augmented-plane-wave density functional method for ab
 initio molecular dynamics simulations.
 https://dx.doi.org/10.1007/s002140050523

 Krack, M; Parrinello, M. 
 PHYSICAL CHEMISTRY CHEMICAL PHYSICS, 2 (10), 2105-2112 (2000). 
 All-electron ab-initio molecular dynamics.
 https://dx.doi.org/10.1039/b001167n

 Martyna, GJ; Tuckerman, ME. 
 JOURNAL OF CHEMICAL PHYSICS, 110 (6), 2810-2821 (1999). 
 A reciprocal space based method for treating long range interactions in
 ab initio and force-field-based calculations in clusters.
 https://dx.doi.org/10.1063/1.477923

 Perdew, JP; Burke, K; Ernzerhof, M. 
 PHYSICAL REVIEW LETTERS, 77 (18), 3865-3868 (1996). 
 Generalized gradient approximation made simple.
 https://dx.doi.org/10.1103/PhysRevLett.77.3865


 -------------------------------------------------------------------------------
 -                                                                             -
 -                                T I M I N G                                  -
 -                                                                             -
 -------------------------------------------------------------------------------
 SUBROUTINE                       CALLS  ASD         SELF TIME        TOTAL TIME
                                MAXIMUM       AVERAGE  MAXIMUM  AVERAGE  MAXIMUM
 CP2K                                 1  1.0    0.007    0.010    6.983    6.984
 qs_energies                          1  2.0    0.000    0.000    6.261    6.261
 mp2_main                             1  3.0    0.000    0.000    5.146    5.147
 mp2_gpw_main                         1  4.0    0.000    0.000    4.901    4.902
 rpa_ri_compute_en                    1  5.0    0.000    0.000    4.247    4.247
 rpa_num_int                          1  6.0    0.001    0.001    4.225    4.225
 GW_matrix_operations               125  7.0    0.003    0.004    3.350    3.391
 cp_gemm                            251  9.5    0.001    0.001    3.212    3.259
 cp_gemm_fm_gemm                    251 10.5    0.001    0.001    3.211    3.258
 cp_fm_gemm                         251 11.5    3.211    3.258    3.211    3.258
 calc_vec_W_gw                      125  8.0    0.378    0.396    3.065    3.118
 qs_ks_build_kohn_sham_matrix         2  6.0    0.000    0.000    0.970    0.970
 rpa_num_int_RPA_matrix_operati     125  7.0    0.001    0.001    0.856    0.908
 scf_env_do_scf                       1  3.0    0.000    0.000    0.870    0.871
 scf_env_do_scf_inner_loop            1  4.0    0.000    0.000    0.870    0.871
 qs_ks_update_qs_env                  1  5.0    0.000    0.000    0.740    0.740
 rebuild_ks_matrix                    1  6.0    0.000    0.000    0.740    0.740
 pw_transfer                         43  8.7    0.002    0.002    0.697    0.730
 calc_mat_Q                         125  8.0    0.000    0.000    0.682    0.729
 fft_wrap_pw1pw2                     35 10.0    0.000    0.000    0.682    0.715
 mp2_ri_gpw_compute_in                1  5.0    0.000    0.001    0.652    0.652
 mp2_ri_gpw_compute_in_loop           1  6.0    0.000    0.000    0.636    0.636
 contract_S_to_Q                    125  9.0    0.001    0.001    0.583    0.630
 fft_wrap_pw1pw2_250                 18 10.9    0.044    0.047    0.555    0.591
 fft3d_ps                            35 12.0    0.317    0.326    0.503    0.539
 mp2_eri_3c_integrate                 1  7.0    0.014    0.022    0.267    0.397
 integrate_set_3c                 25908  8.0    0.212    0.332    0.253    0.386
 create_qs_kind_set                   1  2.0    0.000    0.000    0.355    0.356
 read_qs_kind                         2  3.0    0.198    0.226    0.355    0.356
 contract_B_L                         2  7.0    0.000    0.000    0.276    0.353
 qs_init_subsys                       1  2.0    0.002    0.002    0.350    0.350
 qs_vxc_create                        2  7.0    0.000    0.000    0.331    0.331
 xc_vxc_pw_create                     1  9.0    0.003    0.003    0.331    0.331
 qs_env_setup                         1  3.0    0.000    0.000    0.307    0.307
 qs_env_rebuild_pw_env                2  3.5    0.000    0.000    0.306    0.307
 pw_env_rebuild                       1  5.0    0.001    0.001    0.306    0.306
 pw_grid_setup                        6  6.0    0.001    0.001    0.260    0.260
 pw_grid_setup_internal               6  7.0    0.003    0.004    0.259    0.259
 qs_rho_update_rho                    2  5.0    0.000    0.000    0.246    0.247
 calculate_rho_elec                   2  6.0    0.026    0.028    0.245    0.245
 compute_vec_Sigma_x_minus_vxc_       1  4.0    0.000    0.000    0.233    0.233
 mp_cart_create                     143 11.0    0.139    0.219    0.139    0.219
 rs_pw_transfer                      24  8.9    0.000    0.000    0.210    0.215
 dbcsr_t_pgrid_create                22  9.8    0.000    0.000    0.136    0.214
 pw_grid_sort                         6  8.0    0.151    0.153    0.210    0.212
 cp_fm_cholesky_invert              125  8.0    0.208    0.212    0.208    0.212
 density_rs2pw                        2  7.0    0.000    0.000    0.204    0.207
 xc_rho_set_and_dset_create           1 10.0    0.002    0.002    0.184    0.202
 init_scf_run                         1  3.0    0.000    0.000    0.185    0.185
 pw_poisson_solve                     3  6.0    0.025    0.025    0.184    0.184
 scf_env_initial_rho_setup            1  4.0    0.000    0.000    0.181    0.181
 parser_read_line                 71891  4.0    0.012    0.013    0.161    0.166
 RPA_postprocessing_nokp            125  8.0    0.004    0.005    0.160    0.161
 cp_fm_cholesky_decompose           129  8.9    0.158    0.159    0.158    0.159
 sum_up_and_integrate                 2  7.0    0.001    0.001    0.157    0.157
 integrate_v_rspace                   2  8.0    0.016    0.017    0.156    0.156
 prepare_gapw_den                     2  7.0    0.000    0.000    0.152    0.154
 parser_read_line_low                77  5.0    0.015    0.081    0.148    0.154
 yz_to_x                             18 12.8    0.055    0.058    0.109    0.148
 pw_poisson_rebuild                   3  7.0    0.002    0.002    0.146    0.147
 MTin_create_screen_fn                1 10.0    0.004    0.004    0.144    0.145
 broadcast_input_information         77  6.0    0.000    0.000    0.133    0.144
 -------------------------------------------------------------------------------

 The number of warnings for this run is : 1
 
 -------------------------------------------------------------------------------
  **** **** ******  **  PROGRAM ENDED AT                 2021-07-19 08:53:08.841
 ***** ** ***  *** **   PROGRAM RAN ON                                     n0314
 **    ****   ******    PROGRAM RAN BY                                 ka_bh5670
 ***** **    ** ** **   PROGRAM PROCESS ID                               2977583
  **** **  *******  **  PROGRAM STOPPED IN /tmp/ka_bh5670.3062160/bh5670/sim/000
                                           007
