 DBCSR| CPU Multiplication driver                                           XSMM
 DBCSR| Multrec recursion limit                                              512
 DBCSR| Multiplication stack size                                           1000
 DBCSR| Maximum elements for images                                    UNLIMITED
 DBCSR| Multiplicative factor virtual images                                   1
 DBCSR| Use multiplication densification                                       T
 DBCSR| Multiplication size stacks                                             3
 DBCSR| Number of 3D layers                                               SINGLE
 DBCSR| Use MPI memory allocation                                              T
 DBCSR| Use RMA algorithm                                                      F
 DBCSR| Use Communication thread                                               T
 DBCSR| Communication thread load                                             87


  **** **** ******  **  PROGRAM STARTED AT               2021-07-19 08:52:27.839
 ***** ** ***  *** **   PROGRAM STARTED ON                                 n0314
 **    ****   ******    PROGRAM STARTED BY                             ka_bh5670
 ***** **    ** ** **   PROGRAM PROCESS ID                               2977452
  **** **  *******  **  PROGRAM STARTED IN /tmp/ka_bh5670.3062160/bh5670/sim/000
                                           007

 CP2K| version string:                                          CP2K version 7.1
 CP2K| source code revision number:                                  git:e635599
 CP2K| cp2kflags: libint fftw3 libxc parallel mpi3 scalapack xsmm spglib        
 CP2K| is freely available from                            https://www.cp2k.org/
 CP2K| Program compiled at                          Do 6. Mai 20:02:55 CEST 2021
 CP2K| Program compiled on                                                 n1731
 CP2K| Program compiled for                                                local
 CP2K| Data directory path    /lustre/home/ka/ka_int/ka_bh5670/cp2k/cp2k-7.1/dat
 CP2K| Input file name                                                diag_2.inp

 GLOBAL| Force Environment number                                              1
 GLOBAL| Basis set file name                                 BASIS_CC_AUG_RI_NEW
 GLOBAL| Potential file name                                           POTENTIAL
 GLOBAL| MM Potential file name                                     MM_POTENTIAL
 GLOBAL| Coordinate file name                               dsgdb9nsd_000007.xyz
 GLOBAL| Method name                                                        CP2K
 GLOBAL| Project name                                                          2
 GLOBAL| Preferred FFT library                                             FFTW3
 GLOBAL| Preferred diagonalization lib.                                       SL
 GLOBAL| Run type                                                         ENERGY
 GLOBAL| All-to-all communication in single precision                          F
 GLOBAL| FFTs using library dependent lengths                                  T
 GLOBAL| Global print level                                                  LOW
 GLOBAL| MPI I/O enabled                                                       T
 GLOBAL| Total number of message passing processes                            16
 GLOBAL| Number of threads for this process                                    1
 GLOBAL| This output is from process                                           0
 GLOBAL| CPU model name                 Intel(R) Xeon(R) Gold 6252 CPU @ 2.10GHz
 GLOBAL| CPUID                                                              1003

 MEMORY| system memory details [Kb]
 MEMORY|                        rank 0           min           max       average
 MEMORY| MemTotal            196673224     196673224     196673224     196673224
 MEMORY| MemFree             170946628     170946628     170946628     170946628
 MEMORY| Buffers                     0             0             0             0
 MEMORY| Cached                4910572       4910572       4910572       4910572
 MEMORY| Slab                  1928328       1928328       1928328       1928328
 MEMORY| SReclaimable           512408        512408        512408        512408
 MEMORY| MemLikelyFree       176369608     176369608     176369608     176369608


 GENERATE|  Preliminary Number of Bonds generated:                             0
 GENERATE|  Achieved consistency in connectivity generation.

 *******************************************************************************
 *******************************************************************************
 **                                                                           **
 **     #####                         ##              ##                      **
 **    ##   ##            ##          ##              ##                      **
 **   ##     ##                       ##            ######                    **
 **   ##     ##  ##   ##  ##   #####  ##  ##   ####   ##    #####    #####    **
 **   ##     ##  ##   ##  ##  ##      ## ##   ##      ##   ##   ##  ##   ##   **
 **   ##  ## ##  ##   ##  ##  ##      ####     ###    ##   ######   ######    **
 **    ##  ###   ##   ##  ##  ##      ## ##      ##   ##   ##       ##        **
 **     #######   #####   ##   #####  ##  ##  ####    ##    #####   ##        **
 **           ##                                                    ##        **
 **                                                                           **
 **                                                ... make the atoms dance   **
 **                                                                           **
 **            Copyright (C) by CP2K developers group (2000 - 2019)           **
 **                                                                           **
 *******************************************************************************

 *** WARNING in qs_environment.F:1310 :: More added MOs requested than ***
 *** available. The full set of unoccupied MOs will be used.           ***



 TOTAL NUMBERS AND MAXIMUM NUMBERS

  Total number of            - Atomic kinds:                                   2
                             - Atoms:                                          8
                             - Shell sets:                                    36
                             - Shells:                                        48
                             - Primitive Cartesian functions:                 76
                             - Cartesian basis functions:                    104
                             - Spherical basis functions:                    100

  Maximum angular momentum of the orbital basis functions:                     2


 SCF PARAMETERS         Density guess:                                   RESTART
                        --------------------------------------------------------
                        max_scf:                                             100
                        max_scf_history:                                       0
                        max_diis:                                              4
                        --------------------------------------------------------
                        eps_scf:                                        1.00E-06
                        eps_scf_history:                                0.00E+00
                        eps_diis:                                       1.00E-01
                        eps_eigval:                                     1.00E-05
                        --------------------------------------------------------
                        level_shift [a.u.]:                                 0.00
                        added MOs                                        91    0
                        --------------------------------------------------------
                        Mixing method:                            BROYDEN_MIXING
                                                charge density mixing in g-space
                        --------------------------------------------------------
                        No outer SCF
 
 RI-RPA| using GPW style
 

 Number of electrons:                                                         18
 Number of occupied orbitals:                                                  9
 Number of molecular orbitals:                                               100

 Number of orbital functions:                                                100
 Number of independent orbital functions:                                    100

 Extrapolation method: initial_guess


 SCF WAVEFUNCTION OPTIMIZATION

  Step     Update method      Time    Convergence         Total energy    Change
  ------------------------------------------------------------------------------
     1 NoMix/Diag. 0.20E+00    0.7     4.1636E-09       -79.7056766302 -7.97E+01

  *** SCF run converged in     1 steps ***


  Electronic density on regular grids:        -14.2193779113        3.7806220887
  Core density on regular grids:               18.0000000000       -0.0000000000
  Hard and soft densities (Lebedev):         -102.0749008383      -98.2942786347
  Total Rho_soft + Rho1_hard - Rho1_soft      -18.0000001149
  Total charge density (r-space):              -0.0000001149
  Total Rho_soft + Rho0_soft (g-space):        -0.0000001496

  Overlap energy of the core charge distribution:               0.00000468880597
  Self energy of the core charge distribution:                -66.68833699131878
  Core Hamiltonian energy:                                    -11.59650834075190
  Hartree energy:                                              26.99471313713140
  Exchange-correlation energy:                                 -5.80107097223598

  GAPW| Exc from hard and soft atomic rho1:                    -7.14689615925302
  GAPW| local Eh = 1 center integrals:                        -15.46758199254681

  Total energy:                                               -79.70567663016912
  
  Eigenvalues of the occupied subspace spin            1
 ---------------------------------------------
      -9.88363469      -9.88355303      -0.68179814      -0.55308432
      -0.38532364      -0.38531899      -0.32602677      -0.29822802
      -0.29822062
 Fermi Energy [eV] :   -8.114996
  
  Lowest eigenvalues of the unoccupied subspace spin            1
 ---------------------------------------------
      -0.01407946       0.00916725       0.01859677       0.01869891
       0.04907425       0.04942774       0.06446829       0.08322676
       0.08333266       0.10062704


 RI-RPA section
 --------------

  Used number of processes per group:                                          1
  Maximum allowed memory usage per MPI processes:                    4000.00 MiB
  GPW_INFO| Density cutoff [a.u.]:                                         150.0
  GPW_INFO| Relative density cutoff [a.u.]:                                 25.0
  RI_INFO| Cholesky decomposition group size:                                  1
  RI_INFO| Number of groups for auxiliary basis functions                     16
  RI_INFO| Occupied  basis set size:                                           9
  RI_INFO| Virtual   basis set size:                                          91
  RI_INFO| Auxiliary basis set size:                                         282
  RI_INFO| Total memory for (ia|K) integrals:                           1.76 MiB
  RI_INFO| Total memory for G0W0-(nm|K) integrals:                      6.24 MiB
  RI_INFO| Minimum required memory per MPI process:                     0.22 MiB
  RI_INFO| Available memory per MPI process:                         3648.00 MiB
  RI_INFO| Group size for frequency integration:                               8
  INTEG_INFO| Clenshaw-Curtius quadrature
  INTEG_INFO| Number of integration points:                                   50
  INTEG_INFO| Number of integration points per RPA group:                     25
  MATRIX_INFO| Number row processes:                                           4
  MATRIX_INFO| Number column processes:                                        2
  MATRIX_INFO| Row block size:                                               102
  MATRIX_INFO| Column block size:                                             70
  INTEG_INFO| Scaling parameter:                                         0.20000
  PERFORMANCE| PDGEMM flop rate (Gflops / MPI rank):                        1.63
  
  GW quasiparticle energies
  -------------------------
   
  The GW quasiparticle energies are calculated according to: 
  E_GW = E_SCF + Z * ( Sigc(E_SCF) + Sigx - vxc )
   
  The energy unit of the following table is eV.  Sigc_fit is a very conservative
  estimate of the statistical error of the fitting.
   
            MO      E_SCF       Sigc   Sigc_fit   Sigx-vxc          Z       E_GW
     1 ( occ )   -268.947     -2.974      0.000    -35.389      1.000   -307.310
     2 ( occ )   -268.945     -3.858      0.000    -35.374      1.000   -308.177
     3 ( occ )    -18.553      5.443      0.000     -8.903      1.000    -22.013
     4 ( occ )    -15.050      4.043      0.000     -7.690      1.000    -18.698
     5 ( occ )    -10.485      1.681      0.000     -5.524      1.000    -14.328
     6 ( occ )    -10.485      1.681      0.000     -5.523      1.000    -14.327
     7 ( occ )     -8.872      1.295      0.000     -4.645      1.000    -12.222
     8 ( occ )     -8.115      1.041      0.000     -4.863      1.000    -11.937
     9 ( occ )     -8.115      1.041      0.000     -4.863      1.000    -11.937
    10 ( vir )     -0.383     -0.546      0.000      2.090      1.000      1.160
    11 ( vir )      0.249     -0.445      0.000      1.758      1.000      1.563
    12 ( vir )      0.506     -0.355      0.000      1.487      1.000      1.638
    13 ( vir )      0.509     -0.356      0.000      1.491      1.000      1.643
    14 ( vir )      1.335     -0.312      0.000      1.378      1.000      2.402
    15 ( vir )      1.345     -0.314      0.000      1.385      1.000      2.416
    16 ( vir )      1.754     -0.455      0.000      1.871      1.000      3.170
    17 ( vir )      2.265     -0.435      0.000      1.930      1.000      3.759
    18 ( vir )      2.268     -0.437      0.000      1.936      1.000      3.766
    19 ( vir )      2.738     -0.423      0.000      1.609      1.000      3.924
    20 ( vir )      2.874     -0.509      0.000      1.757      1.000      4.122
    21 ( vir )      3.215     -0.498      0.000      1.770      1.000      4.487
    22 ( vir )      3.219     -0.497      0.000      1.768      1.000      4.489
    23 ( vir )      3.609     -0.676      0.000      2.398      1.000      5.331
    24 ( vir )      4.062     -1.334      0.000      4.136      1.000      6.864
    25 ( vir )      4.062     -1.334      0.000      4.136      1.000      6.864
    26 ( vir )      4.494     -1.136      0.000      3.504      1.000      6.861
    27 ( vir )      4.504     -1.133      0.000      3.495      1.000      6.866
    28 ( vir )      5.889     -1.807      0.000      4.742      1.000      8.824
    29 ( vir )      6.875     -1.054      0.000      3.488      1.000      9.309
   
  GW HOMO-LUMO gap (eV)                                                    13.10
  
  PERFORMANCE| PDGEMM flop rate (Gflops / MPI rank):                        2.24
  
  GW quasiparticle energies
  -------------------------
   
  The GW quasiparticle energies are calculated according to: 
  E_GW = E_SCF + Z * ( Sigc(E_SCF) + Sigx - vxc )
   
  The energy unit of the following table is eV.  Sigc_fit is a very conservative
  estimate of the statistical error of the fitting.
   
            MO      E_SCF       Sigc   Sigc_fit   Sigx-vxc          Z       E_GW
     1 ( occ )   -307.310      2.147      0.000    -35.389      1.000   -302.189
     2 ( occ )   -308.177     -4.406      0.000    -35.374      1.000   -308.725
     3 ( occ )    -22.013      3.617      0.000     -8.903      1.000    -23.839
     4 ( occ )    -18.698      2.398      0.000     -7.690      1.000    -20.342
     5 ( occ )    -14.328      0.885      0.000     -5.524      1.000    -15.124
     6 ( occ )    -14.327      0.885      0.000     -5.523      1.000    -15.124
     7 ( occ )    -12.222      0.707      0.000     -4.645      1.000    -12.810
     8 ( occ )    -11.937      0.456      0.000     -4.863      1.000    -12.522
     9 ( occ )    -11.937      0.456      0.000     -4.863      1.000    -12.522
    10 ( vir )      1.160     -0.442      0.000      2.090      1.000      1.265
    11 ( vir )      1.563     -0.352      0.000      1.758      1.000      1.656
    12 ( vir )      1.638     -0.284      0.000      1.487      1.000      1.709
    13 ( vir )      1.643     -0.285      0.000      1.491      1.000      1.714
    14 ( vir )      2.402     -0.250      0.000      1.378      1.000      2.464
    15 ( vir )      2.416     -0.252      0.000      1.385      1.000      2.478
    16 ( vir )      3.170     -0.360      0.000      1.871      1.000      3.265
    17 ( vir )      3.759     -0.342      0.000      1.930      1.000      3.853
    18 ( vir )      3.766     -0.343      0.000      1.936      1.000      3.861
    19 ( vir )      3.924     -0.344      0.000      1.609      1.000      4.003
    20 ( vir )      4.122     -0.410      0.000      1.757      1.000      4.221
    21 ( vir )      4.487     -0.400      0.000      1.770      1.000      4.585
    22 ( vir )      4.489     -0.399      0.000      1.768      1.000      4.587
    23 ( vir )      5.331     -0.531      0.000      2.398      1.000      5.476
    24 ( vir )      6.864     -1.070      0.000      4.136      1.000      7.128
    25 ( vir )      6.864     -1.070      0.000      4.136      1.000      7.128
    26 ( vir )      6.861     -0.907      0.000      3.504      1.000      7.090
    27 ( vir )      6.866     -0.905      0.000      3.495      1.000      7.094
    28 ( vir )      8.824     -1.469      0.000      4.742      1.000      9.162
    29 ( vir )      9.309     -0.752      0.000      3.488      1.000      9.612
   
  GW HOMO-LUMO gap (eV)                                                    13.79
  
  PERFORMANCE| PDGEMM flop rate (Gflops / MPI rank):                        2.50
  
  GW quasiparticle energies
  -------------------------
   
  The GW quasiparticle energies are calculated according to: 
  E_GW = E_SCF + Z * ( Sigc(E_SCF) + Sigx - vxc )
   
  The energy unit of the following table is eV.  Sigc_fit is a very conservative
  estimate of the statistical error of the fitting.
   
            MO      E_SCF       Sigc   Sigc_fit   Sigx-vxc          Z       E_GW
     1 ( occ )   -302.189      7.636      0.000    -35.389      1.000   -296.700
     2 ( occ )   -308.725      0.144      0.000    -35.374      1.000   -304.175
     3 ( occ )    -23.839      3.324      0.000     -8.903      1.000    -24.132
     4 ( occ )    -20.342      2.196      0.000     -7.690      1.000    -20.544
     5 ( occ )    -15.124      0.787      0.000     -5.524      1.000    -15.222
     6 ( occ )    -15.124      0.787      0.000     -5.523      1.000    -15.221
     7 ( occ )    -12.810      0.623      0.000     -4.645      1.000    -12.894
     8 ( occ )    -12.522      0.382      0.000     -4.863      1.000    -12.596
     9 ( occ )    -12.522      0.382      0.000     -4.863      1.000    -12.596
    10 ( vir )      1.265     -0.433      0.000      2.090      1.000      1.274
    11 ( vir )      1.656     -0.344      0.000      1.758      1.000      1.663
    12 ( vir )      1.709     -0.278      0.000      1.487      1.000      1.715
    13 ( vir )      1.714     -0.279      0.000      1.491      1.000      1.721
    14 ( vir )      2.464     -0.244      0.000      1.378      1.000      2.469
    15 ( vir )      2.478     -0.246      0.000      1.385      1.000      2.484
    16 ( vir )      3.265     -0.351      0.000      1.871      1.000      3.274
    17 ( vir )      3.853     -0.333      0.000      1.930      1.000      3.862
    18 ( vir )      3.861     -0.334      0.000      1.936      1.000      3.870
    19 ( vir )      4.003     -0.337      0.000      1.609      1.000      4.010
    20 ( vir )      4.221     -0.402      0.000      1.757      1.000      4.229
    21 ( vir )      4.585     -0.391      0.000      1.770      1.000      4.594
    22 ( vir )      4.587     -0.391      0.000      1.768      1.000      4.596
    23 ( vir )      5.476     -0.519      0.000      2.398      1.000      5.488
    24 ( vir )      7.128     -1.047      0.000      4.136      1.000      7.152
    25 ( vir )      7.128     -1.047      0.000      4.136      1.000      7.152
    26 ( vir )      7.090     -0.887      0.000      3.504      1.000      7.110
    27 ( vir )      7.094     -0.885      0.000      3.495      1.000      7.114
    28 ( vir )      9.162     -1.438      0.000      4.742      1.000      9.193
    29 ( vir )      9.612     -0.729      0.000      3.488      1.000      9.635
   
  GW HOMO-LUMO gap (eV)                                                    13.87
  
  PERFORMANCE| PDGEMM flop rate (Gflops / MPI rank):                        2.60
  
  GW quasiparticle energies
  -------------------------
   
  The GW quasiparticle energies are calculated according to: 
  E_GW = E_SCF + Z * ( Sigc(E_SCF) + Sigx - vxc )
   
  The energy unit of the following table is eV.  Sigc_fit is a very conservative
  estimate of the statistical error of the fitting.
   
            MO      E_SCF       Sigc   Sigc_fit   Sigx-vxc          Z       E_GW
     1 ( occ )   -296.700      0.791      0.000    -35.389      1.000   -303.545
     2 ( occ )   -304.175      2.604      0.000    -35.374      1.000   -301.715
     3 ( occ )    -24.132      3.288      0.000     -8.903      1.000    -24.168
     4 ( occ )    -20.544      2.172      0.000     -7.690      1.000    -20.568
     5 ( occ )    -15.222      0.775      0.000     -5.524      1.000    -15.233
     6 ( occ )    -15.221      0.775      0.000     -5.523      1.000    -15.233
     7 ( occ )    -12.894      0.613      0.000     -4.645      1.000    -12.904
     8 ( occ )    -12.596      0.373      0.000     -4.863      1.000    -12.605
     9 ( occ )    -12.596      0.373      0.000     -4.863      1.000    -12.605
    10 ( vir )      1.274     -0.432      0.000      2.090      1.000      1.275
    11 ( vir )      1.663     -0.343      0.000      1.758      1.000      1.664
    12 ( vir )      1.715     -0.277      0.000      1.487      1.000      1.716
    13 ( vir )      1.721     -0.278      0.000      1.491      1.000      1.721
    14 ( vir )      2.469     -0.244      0.000      1.378      1.000      2.470
    15 ( vir )      2.484     -0.245      0.000      1.385      1.000      2.485
    16 ( vir )      3.274     -0.350      0.000      1.871      1.000      3.275
    17 ( vir )      3.862     -0.332      0.000      1.930      1.000      3.862
    18 ( vir )      3.870     -0.333      0.000      1.936      1.000      3.871
    19 ( vir )      4.010     -0.337      0.000      1.609      1.000      4.011
    20 ( vir )      4.229     -0.401      0.000      1.757      1.000      4.230
    21 ( vir )      4.594     -0.390      0.000      1.770      1.000      4.595
    22 ( vir )      4.596     -0.390      0.000      1.768      1.000      4.597
    23 ( vir )      5.488     -0.517      0.000      2.398      1.000      5.489
    24 ( vir )      7.152     -1.044      0.000      4.136      1.000      7.154
    25 ( vir )      7.152     -1.044      0.000      4.136      1.000      7.154
    26 ( vir )      7.110     -0.885      0.000      3.504      1.000      7.112
    27 ( vir )      7.114     -0.883      0.000      3.495      1.000      7.116
    28 ( vir )      9.193     -1.435      0.000      4.742      1.000      9.196
    29 ( vir )      9.635     -0.726      0.000      3.488      1.000      9.637
   
  GW HOMO-LUMO gap (eV)                                                    13.88
  
  PERFORMANCE| PDGEMM flop rate (Gflops / MPI rank):                        2.60
  
  GW quasiparticle energies
  -------------------------
   
  The GW quasiparticle energies are calculated according to: 
  E_GW = E_SCF + Z * ( Sigc(E_SCF) + Sigx - vxc )
   
  The energy unit of the following table is eV.  Sigc_fit is a very conservative
  estimate of the statistical error of the fitting.
   
            MO      E_SCF       Sigc   Sigc_fit   Sigx-vxc          Z       E_GW
     1 ( occ )   -303.545      2.911      0.000    -35.389      1.000   -301.425
     2 ( occ )   -301.715      1.416      0.000    -35.374      1.000   -302.903
     3 ( occ )    -24.168      3.283      0.000     -8.903      1.000    -24.172
     4 ( occ )    -20.568      2.169      0.000     -7.690      1.000    -20.571
     5 ( occ )    -15.233      0.774      0.000     -5.524      1.000    -15.235
     6 ( occ )    -15.233      0.774      0.000     -5.523      1.000    -15.235
     7 ( occ )    -12.904      0.611      0.000     -4.645      1.000    -12.906
     8 ( occ )    -12.605      0.372      0.000     -4.863      1.000    -12.606
     9 ( occ )    -12.605      0.372      0.000     -4.863      1.000    -12.606
    10 ( vir )      1.275     -0.431      0.000      2.090      1.000      1.276
    11 ( vir )      1.664     -0.343      0.000      1.758      1.000      1.664
    12 ( vir )      1.716     -0.277      0.000      1.487      1.000      1.716
    13 ( vir )      1.721     -0.278      0.000      1.491      1.000      1.721
    14 ( vir )      2.470     -0.244      0.000      1.378      1.000      2.470
    15 ( vir )      2.485     -0.245      0.000      1.385      1.000      2.485
    16 ( vir )      3.275     -0.350      0.000      1.871      1.000      3.275
    17 ( vir )      3.862     -0.332      0.000      1.930      1.000      3.863
    18 ( vir )      3.871     -0.333      0.000      1.936      1.000      3.871
    19 ( vir )      4.011     -0.336      0.000      1.609      1.000      4.011
    20 ( vir )      4.230     -0.401      0.000      1.757      1.000      4.230
    21 ( vir )      4.595     -0.390      0.000      1.770      1.000      4.595
    22 ( vir )      4.597     -0.389      0.000      1.768      1.000      4.597
    23 ( vir )      5.489     -0.517      0.000      2.398      1.000      5.489
    24 ( vir )      7.154     -1.044      0.000      4.136      1.000      7.155
    25 ( vir )      7.154     -1.044      0.000      4.136      1.000      7.154
    26 ( vir )      7.112     -0.885      0.000      3.504      1.000      7.112
    27 ( vir )      7.116     -0.883      0.000      3.495      1.000      7.116
    28 ( vir )      9.196     -1.434      0.000      4.742      1.000      9.197
    29 ( vir )      9.637     -0.726      0.000      3.488      1.000      9.638
   
  GW HOMO-LUMO gap (eV)                                                    13.88
  

  Total RI-RPA Time=                                                    0.935531
  RI-RPA energy  =                                             -0.46878822473499

  Total EXX Time=                                                       0.211704
  EXX energy  =                                                 0.00000000000000

 ENERGY| Total FORCE_EVAL ( QS ) energy (a.u.):              -67.226497722740277


 -------------------------------------------------------------------------------
 -                                                                             -
 -                                DBCSR STATISTICS                             -
 -                                                                             -
 -------------------------------------------------------------------------------
 COUNTER                                    TOTAL       BLAS       SMM       ACC
 flops     3 x     1 x     1                  216       0.0%    100.0%      0.0%
 flops     3 x     2 x     1                  720       0.0%    100.0%      0.0%
 flops     3 x     1 x     2                  720       0.0%    100.0%      0.0%
 flops    12 x     1 x     1                  864       0.0%    100.0%      0.0%
 flops     3 x     2 x     2                 2400       0.0%    100.0%      0.0%
 flops    12 x     2 x     1                 2880       0.0%    100.0%      0.0%
 flops    12 x     1 x     2                 2880       0.0%    100.0%      0.0%
 flops     3 x    16 x     1                 9216       0.0%    100.0%      0.0%
 flops     3 x     1 x    16                 9216       0.0%    100.0%      0.0%
 flops    12 x     2 x     2                 9600       0.0%    100.0%      0.0%
 flops     4 x     1 x     1                13536       0.0%    100.0%      0.0%
 flops     9 x    23 x     4                19872       0.0%    100.0%      0.0%
 flops    23 x     9 x     4                19872       0.0%    100.0%      0.0%
 flops    23 x    23 x     4                25392       0.0%    100.0%      0.0%
 flops     9 x     9 x     4                27216       0.0%    100.0%      0.0%
 flops     3 x    16 x     2                30720       0.0%    100.0%      0.0%
 flops     3 x     2 x    16                30720       0.0%    100.0%      0.0%
 flops    12 x    16 x     1                36864       0.0%    100.0%      0.0%
 flops    12 x     1 x    16                36864       0.0%    100.0%      0.0%
 flops     4 x     2 x     1                45120       0.0%    100.0%      0.0%
 flops     4 x     1 x     2                45120       0.0%    100.0%      0.0%
 flops    12 x    16 x     2               122880       0.0%    100.0%      0.0%
 flops    12 x     2 x    16               122880       0.0%    100.0%      0.0%
 flops    23 x    32 x    23               135424       0.0%    100.0%      0.0%
 flops     4 x     2 x     2               150400       0.0%    100.0%      0.0%
 flops    23 x    32 x     9               158976       0.0%    100.0%      0.0%
 flops    23 x    23 x     9               228528       0.0%    100.0%      0.0%
 flops    23 x    23 x    27               228528       0.0%    100.0%      0.0%
 flops     9 x    23 x    23               228528       0.0%    100.0%      0.0%
 flops    27 x    23 x    23               228528       0.0%    100.0%      0.0%
 flops    23 x    27 x    23               228528       0.0%    100.0%      0.0%
 flops    16 x     1 x     1               252288       0.0%    100.0%      0.0%
 flops    27 x    27 x    23               268272       0.0%    100.0%      0.0%
 flops     9 x    23 x     9               268272       0.0%    100.0%      0.0%
 flops    27 x    23 x    27               268272       0.0%    100.0%      0.0%
 flops    23 x    27 x    27               268272       0.0%    100.0%      0.0%
 flops    27 x    27 x    27               314928       0.0%    100.0%      0.0%
 flops    23 x    23 x    23               389344       0.0%    100.0%      0.0%
 flops     3 x    16 x    16               393216       0.0%    100.0%      0.0%
 flops     9 x    23 x    32               476928       0.0%    100.0%      0.0%
 flops    23 x     9 x    32               476928       0.0%    100.0%      0.0%
 flops     1 x     1 x     1               550912       0.0%    100.0%      0.0%
 flops     4 x    16 x     1               577536       0.0%    100.0%      0.0%
 flops     4 x     1 x    16               577536       0.0%    100.0%      0.0%
 flops    23 x    23 x    32               609408       0.0%    100.0%      0.0%
 flops     9 x     9 x    32               653184       0.0%    100.0%      0.0%
 flops    16 x     2 x     1               840960       0.0%    100.0%      0.0%
 flops    16 x     1 x     2               840960       0.0%    100.0%      0.0%
 flops    12 x    16 x    16              1572864       0.0%    100.0%      0.0%
 flops     4 x    16 x     2              1925120       0.0%    100.0%      0.0%
 flops     4 x     2 x    16              1925120       0.0%    100.0%      0.0%
 flops    16 x     2 x     2              2803200       0.0%    100.0%      0.0%
 flops    29 x     4 x    23              3009504       0.0%    100.0%      0.0%
 flops    29 x     4 x     9              3532896       0.0%    100.0%      0.0%
 flops     9 x    27 x    23              6304392       0.0%    100.0%      0.0%
 flops     9 x    27 x     9              7400808       0.0%    100.0%      0.0%
 flops    23 x     9 x    23             10740816       0.0%    100.0%      0.0%
 flops    16 x    16 x     1             10764288       0.0%    100.0%      0.0%
 flops    16 x     1 x    16             10764288       0.0%    100.0%      0.0%
 flops    23 x     9 x     9             12608784       0.0%    100.0%      0.0%
 flops     9 x     9 x    23             12608784       0.0%    100.0%      0.0%
 flops     9 x     9 x     9             14801616       0.0%    100.0%      0.0%
 flops     9 x    32 x    23             15102720       0.0%    100.0%      0.0%
 flops     9 x    32 x     9             17729280       0.0%    100.0%      0.0%
 flops     4 x    16 x    16             24641536       0.0%    100.0%      0.0%
 flops    23 x    29 x    23             34609296       0.0%    100.0%      0.0%
 flops    16 x    16 x     2             35880960       0.0%    100.0%      0.0%
 flops    16 x     2 x    16             35880960       0.0%    100.0%      0.0%
 flops    23 x    29 x     9             40628304       0.0%    100.0%      0.0%
 flops     9 x    29 x    23             40628304       0.0%    100.0%      0.0%
 flops     9 x    29 x     9             47694096       0.0%    100.0%      0.0%
 flops    29 x    32 x    23             72228096       0.0%    100.0%      0.0%
 flops    29 x    32 x     9             84789504       0.0%    100.0%      0.0%
 flops    16 x    16 x    16            459276288       0.0%    100.0%      0.0%
 flops inhomo. stacks                     8388608     100.0%      0.0%      0.0%
 flops total                         1.028471E+09       0.8%     99.2%      0.0%
 flops max/rank                     77.043696E+06       5.4%     94.6%      0.0%
 matmuls inhomo. stacks                      1024     100.0%      0.0%      0.0%
 matmuls total                             603344       0.2%     99.8%      0.0%
 number of processed stacks                  6062       0.1%     99.9%      0.0%
 average stack size                                   256.0      99.4       0.0
 marketing flops                     1.017822E+09
 -------------------------------------------------------------------------------
 # multiplications                             81
 max memory usage/rank             380.305408E+06
 # max total images/rank                        1
 # max 3D layers                                1
 # MPI messages exchanged                     608
 MPI messages size (bytes):
  total size                        15.721200E+06
  min size                           0.000000E+00
  max size                         519.680000E+03
  average size                      25.857236E+03
 MPI breakdown and total messages size (bytes):
             size <=      128                  60                        0
       128 < size <=     8192                 484                  2241600
      8192 < size <=    32768                   0                        0
     32768 < size <=   131072                  11                  1172824
    131072 < size <=  4194304                  53                 12306776
   4194304 < size <= 16777216                   0                        0
  16777216 < size                               0                        0
 -------------------------------------------------------------------------------
 -                                                                             -
 -                      DBCSR MESSAGE PASSING PERFORMANCE                      -
 -                                                                             -
 -------------------------------------------------------------------------------
 ROUTINE             CALLS      AVE VOLUME [Bytes]
 MP_Group              111
 MP_Bcast              103                     10.
 MP_Allreduce          516                     16.
 MP_Alltoall           737                   6253.
 MP_Wait              2120
 MP_comm_split          28
 MP_ISend              700                   4729.
 MP_IRecv              700                   4755.
 MP_Memory            3022
 -------------------------------------------------------------------------------

 MEMORY| Estimated peak process memory [MiB]                                 368

 -------------------------------------------------------------------------------
 -                                                                             -
 -                         MESSAGE PASSING PERFORMANCE                         -
 -                                                                             -
 -------------------------------------------------------------------------------

 ROUTINE             CALLS      AVE VOLUME [Bytes]
 MP_Group                6
 MP_Bcast              564                9608312.
 MP_Allreduce          554                   7569.
 MP_Sync                14
 MP_Alltoall            54                7056405.
 MP_SendRecv            30                   2604.
 MP_ISendRecv          240                 139888.
 MP_Wait              1336
 MP_comm_split          11
 MP_ISend              693                 119767.
 MP_IRecv              945                  91791.
 MP_Recv                 3                  20000.
 -------------------------------------------------------------------------------


 -------------------------------------------------------------------------------
 -                                                                             -
 -                           R E F E R E N C E S                               -
 -                                                                             -
 -------------------------------------------------------------------------------
 
 CP2K version 7.1, the CP2K developers group (2019).
 CP2K is freely available from https://www.cp2k.org/ .

 Schuett, Ole; Messmer, Peter; Hutter, Juerg; VandeVondele, Joost. 
 Electronic Structure Calculations on Graphics Processing Units, John
 Wiley & Sons, Ltd, 173-190 (2016). 
 GPU-Accelerated Sparse Matrix-Matrix Multiplication for
 Linear Scaling Density Functional Theory.
 https://dx.doi.org/10.1002/9781118670712.ch8

 Del Ben, M; Schuett, O; Wentz, T; Messmer, P; Hutter, J;
 VandeVondele, J. 
 COMPUTER PHYSICS COMMUNICATIONS, 187, 120-129 (2015). 
 Enabling simulation at the fifth rung of DFT: Large scale RPA
 calculations with excellent time to solution.
 https://dx.doi.org/10.1016/j.cpc.2014.10.021

 Borstnik, U; VandeVondele, J; Weber, V; Hutter, J. 
 PARALLEL COMPUTING, 40 (5-6), 47-58 (2014). 
 Sparse matrix multiplication: The distributed block-compressed sparse
 row library.
 https://dx.doi.org/10.1016/j.parco.2014.03.012

 Hutter, J; Iannuzzi, M; Schiffmann, F; VandeVondele, J. 
 WIREs Comput Mol Sci., 4 (1), 15-25 (2014). 
 CP2K: atomistic simulations of condensed matter systems.
 https://dx.doi.org/10.1002/wcms.1159

 Del Ben, M; Hutter, J; VandeVondele, J. 
 JOURNAL OF CHEMICAL THEORY AND COMPUTATION, 9 (6), 2654-2671 (2013). 
 Electron Correlation in the Condensed Phase from a Resolution of
 Identity Approach Based on the Gaussian and Plane Waves Scheme.
 https://dx.doi.org/10.1021/ct4002202

 Del Ben, M; Hutter, J; VandeVondele, J. 
 JOURNAL OF CHEMICAL THEORY AND COMPUTATION, 8 (11), 4177-4188 (2012). 
 Second-Order Moller-Plesset Perturbation Theory in the Condensed Phase:
 An Efficient and Massively Parallel Gaussian and Plane Waves Approach.
 https://dx.doi.org/10.1021/ct300531w

 Guidon, M; Hutter, J; VandeVondele, J. 
 JOURNAL OF CHEMICAL THEORY AND COMPUTATION, 5 (11), 3010-3021 (2009). 
 Robust Periodic Hartree-Fock Exchange for Large-Scale Simulations Using
 Gaussian Basis Sets.
 https://dx.doi.org/10.1021/ct900494g

 Guidon, M; Schiffmann, F; Hutter, J; VandeVondele, J. 
 JOURNAL OF CHEMICAL PHYSICS, 128 (21), 214104 (2008). 
 Ab initio molecular dynamics using hybrid density functionals.
 https://dx.doi.org/10.1063/1.2931945

 Frigo, M; Johnson, SG. 
 PROCEEDINGS OF THE IEEE, 93 (2), 216-231 (2005). 
 The design and implementation of FFTW3.
 https://dx.doi.org/10.1109/JPROC.2004.840301

 Lippert, G; Hutter, J; Parrinello, M. 
 THEORETICAL CHEMISTRY ACCOUNTS, 103 (2), 124-140 (1999). 
 The Gaussian and augmented-plane-wave density functional method for ab
 initio molecular dynamics simulations.
 https://dx.doi.org/10.1007/s002140050523

 Krack, M; Parrinello, M. 
 PHYSICAL CHEMISTRY CHEMICAL PHYSICS, 2 (10), 2105-2112 (2000). 
 All-electron ab-initio molecular dynamics.
 https://dx.doi.org/10.1039/b001167n

 Martyna, GJ; Tuckerman, ME. 
 JOURNAL OF CHEMICAL PHYSICS, 110 (6), 2810-2821 (1999). 
 A reciprocal space based method for treating long range interactions in
 ab initio and force-field-based calculations in clusters.
 https://dx.doi.org/10.1063/1.477923

 Perdew, JP; Burke, K; Ernzerhof, M. 
 PHYSICAL REVIEW LETTERS, 77 (18), 3865-3868 (1996). 
 Generalized gradient approximation made simple.
 https://dx.doi.org/10.1103/PhysRevLett.77.3865


 -------------------------------------------------------------------------------
 -                                                                             -
 -                                T I M I N G                                  -
 -                                                                             -
 -------------------------------------------------------------------------------
 SUBROUTINE                       CALLS  ASD         SELF TIME        TOTAL TIME
                                MAXIMUM       AVERAGE  MAXIMUM  AVERAGE  MAXIMUM
 CP2K                                 1  1.0    0.009    0.012    2.830    2.831
 qs_energies                          1  2.0    0.000    0.000    2.201    2.202
 mp2_main                             1  3.0    0.000    0.001    1.153    1.153
 mp2_gpw_main                         1  4.0    0.000    0.000    0.935    0.936
 qs_ks_build_kohn_sham_matrix         2  6.0    0.000    0.001    0.918    0.918
 scf_env_do_scf                       1  3.0    0.000    0.000    0.824    0.825
 scf_env_do_scf_inner_loop            1  4.0    0.000    0.000    0.824    0.824
 rpa_ri_compute_en                    1  5.0    0.000    0.000    0.793    0.793
 rpa_num_int                          1  6.0    0.000    0.001    0.787    0.788
 pw_transfer                         43  8.7    0.002    0.002    0.690    0.713
 qs_ks_update_qs_env                  1  5.0    0.000    0.000    0.708    0.709
 rebuild_ks_matrix                    1  6.0    0.000    0.000    0.708    0.708
 fft_wrap_pw1pw2                     35 10.0    0.000    0.000    0.675    0.698
 fft_wrap_pw1pw2_250                 18 10.9    0.045    0.048    0.551    0.576
 GW_matrix_operations               125  7.0    0.001    0.002    0.553    0.569
 fft3d_ps                            35 12.0    0.318    0.330    0.494    0.523
 calc_vec_W_gw                      125  8.0    0.130    0.143    0.448    0.460
 cp_gemm                            251  9.5    0.000    0.000    0.432    0.447
 cp_gemm_fm_gemm                    251 10.5    0.000    0.000    0.432    0.447
 cp_fm_gemm                         251 11.5    0.432    0.446    0.432    0.446
 qs_vxc_create                        2  7.0    0.000    0.000    0.334    0.334
 xc_vxc_pw_create                     1  9.0    0.003    0.004    0.333    0.333
 create_qs_kind_set                   1  2.0    0.000    0.000    0.318    0.319
 read_qs_kind                         2  3.0    0.180    0.186    0.318    0.319
 qs_init_subsys                       1  2.0    0.002    0.002    0.291    0.291
 qs_env_setup                         1  3.0    0.000    0.000    0.283    0.283
 qs_env_rebuild_pw_env                2  3.5    0.000    0.000    0.282    0.282
 pw_env_rebuild                       1  5.0    0.000    0.001    0.282    0.282
 pw_grid_setup                        6  6.0    0.001    0.001    0.265    0.265
 pw_grid_setup_internal               6  7.0    0.003    0.004    0.264    0.264
 rpa_num_int_RPA_matrix_operati     125  7.0    0.001    0.001    0.230    0.244
 qs_rho_update_rho                    2  5.0    0.000    0.000    0.228    0.228
 calculate_rho_elec                   2  6.0    0.009    0.009    0.227    0.228
 pw_grid_sort                         6  8.0    0.150    0.152    0.210    0.219
 rs_pw_transfer                      24  8.9    0.000    0.000    0.210    0.215
 compute_vec_Sigma_x_minus_vxc_       1  4.0    0.000    0.000    0.212    0.212
 density_rs2pw                        2  7.0    0.000    0.000    0.205    0.207
 xc_rho_set_and_dset_create           1 10.0    0.002    0.002    0.192    0.203
 pw_poisson_solve                     3  6.0    0.024    0.025    0.183    0.183
 calc_mat_Q                         125  8.0    0.000    0.000    0.159    0.174
 init_scf_run                         1  3.0    0.000    0.000    0.171    0.171
 scf_env_initial_rho_setup            1  4.0    0.000    0.000    0.168    0.168
 contract_S_to_Q                    125  9.0    0.001    0.001    0.135    0.151
 pw_poisson_rebuild                   3  7.0    0.002    0.002    0.146    0.149
 MTin_create_screen_fn                1 10.0    0.004    0.004    0.144    0.146
 parser_read_line                 66736  4.0    0.011    0.012    0.140    0.142
 sum_up_and_integrate                 2  7.0    0.001    0.001    0.141    0.142
 mp2_ri_gpw_compute_in                1  5.0    0.000    0.000    0.141    0.141
 integrate_v_rspace                   2  8.0    0.004    0.005    0.141    0.141
 potential_pw2rs                      2  9.0    0.000    0.000    0.136    0.136
 mp2_ri_gpw_compute_in_loop           1  6.0    0.000    0.000    0.135    0.135
 prepare_gapw_den                     2  7.0    0.000    0.000    0.129    0.132
 parser_read_line_low                72  5.0    0.015    0.078    0.129    0.131
 yz_to_x                             18 12.8    0.054    0.057    0.102    0.128
 put_rho0_on_grid                     2  8.0    0.003    0.004    0.121    0.124
 broadcast_input_information         72  6.0    0.000    0.000    0.114    0.121
 fft_wrap_pw1pw2_500                  1 13.0    0.009    0.010    0.101    0.104
 mp_alltoall_z22v                    35 14.0    0.071    0.099    0.071    0.099
 xc_functional_eval                   5 10.5    0.000    0.000    0.083    0.095
 pbe_lda_eval                         5 11.5    0.083    0.095    0.083    0.095
 rs_pw_transfer_RS2PW_250             4  9.5    0.057    0.058    0.090    0.094
 rs_pw_transfer_PW2RS_250             4 10.0    0.052    0.055    0.087    0.092
 pw_gather_p                         18 11.8    0.082    0.086    0.082    0.086
 cp_fm_cholesky_invert              125  8.0    0.076    0.080    0.076    0.080
 x_to_yz                             17 13.2    0.050    0.055    0.073    0.077
 contract_B_L                         2  7.0    0.000    0.000    0.066    0.075
 mp_bcast_i                         340  7.3    0.067    0.073    0.067    0.073
 sort_shells                          6  9.0    0.060    0.071    0.060    0.071
 RPA_postprocessing_nokp            125  8.0    0.002    0.003    0.064    0.064
 cp_fm_cholesky_decompose           129  8.9    0.063    0.063    0.063    0.063
 mp_waitany                          64 10.8    0.052    0.059    0.052    0.059
 integrate_vhg0_rspace                2  7.0    0.001    0.001    0.056    0.057
 -------------------------------------------------------------------------------

 The number of warnings for this run is : 1
 
 -------------------------------------------------------------------------------
  **** **** ******  **  PROGRAM ENDED AT                 2021-07-19 08:52:31.124
 ***** ** ***  *** **   PROGRAM RAN ON                                     n0314
 **    ****   ******    PROGRAM RAN BY                                 ka_bh5670
 ***** **    ** ** **   PROGRAM PROCESS ID                               2977452
  **** **  *******  **  PROGRAM STOPPED IN /tmp/ka_bh5670.3062160/bh5670/sim/000
                                           007
