 DBCSR| CPU Multiplication driver                                           XSMM
 DBCSR| Multrec recursion limit                                              512
 DBCSR| Multiplication stack size                                           1000
 DBCSR| Maximum elements for images                                    UNLIMITED
 DBCSR| Multiplicative factor virtual images                                   1
 DBCSR| Use multiplication densification                                       T
 DBCSR| Multiplication size stacks                                             3
 DBCSR| Number of 3D layers                                               SINGLE
 DBCSR| Use MPI memory allocation                                              T
 DBCSR| Use RMA algorithm                                                      F
 DBCSR| Use Communication thread                                               T
 DBCSR| Communication thread load                                             87


  **** **** ******  **  PROGRAM STARTED AT               2021-07-20 05:12:11.951
 ***** ** ***  *** **   PROGRAM STARTED ON                                 n0829
 **    ****   ******    PROGRAM STARTED BY                             ka_bh5670
 ***** **    ** ** **   PROGRAM PROCESS ID                               2018772
  **** **  *******  **  PROGRAM STARTED IN /tmp/ka_bh5670.3075306/bh5670/sim/006
                                           855

 CP2K| version string:                                          CP2K version 7.1
 CP2K| source code revision number:                                  git:e635599
 CP2K| cp2kflags: libint fftw3 libxc parallel mpi3 scalapack xsmm spglib        
 CP2K| is freely available from                            https://www.cp2k.org/
 CP2K| Program compiled at                          Do 6. Mai 20:02:55 CEST 2021
 CP2K| Program compiled on                                                 n1731
 CP2K| Program compiled for                                                local
 CP2K| Data directory path    /lustre/home/ka/ka_int/ka_bh5670/cp2k/cp2k-7.1/dat
 CP2K| Input file name                                                diag_2.inp

 GLOBAL| Force Environment number                                              1
 GLOBAL| Basis set file name                                 BASIS_CC_AUG_RI_NEW
 GLOBAL| Potential file name                                           POTENTIAL
 GLOBAL| MM Potential file name                                     MM_POTENTIAL
 GLOBAL| Coordinate file name                               dsgdb9nsd_006855.xyz
 GLOBAL| Method name                                                        CP2K
 GLOBAL| Project name                                                          2
 GLOBAL| Preferred FFT library                                             FFTW3
 GLOBAL| Preferred diagonalization lib.                                       SL
 GLOBAL| Run type                                                         ENERGY
 GLOBAL| All-to-all communication in single precision                          F
 GLOBAL| FFTs using library dependent lengths                                  T
 GLOBAL| Global print level                                                  LOW
 GLOBAL| MPI I/O enabled                                                       T
 GLOBAL| Total number of message passing processes                            16
 GLOBAL| Number of threads for this process                                    1
 GLOBAL| This output is from process                                           0
 GLOBAL| CPU model name                 Intel(R) Xeon(R) Gold 6252 CPU @ 2.10GHz
 GLOBAL| CPUID                                                              1003

 MEMORY| system memory details [Kb]
 MEMORY|                        rank 0           min           max       average
 MEMORY| MemTotal            196673228     196673228     196673228     196673228
 MEMORY| MemFree             171784716     171784716     171784716     171784716
 MEMORY| Buffers                     0             0             0             0
 MEMORY| Cached                4965520       4965520       4965520       4965520
 MEMORY| Slab                  1976692       1976692       1976692       1976692
 MEMORY| SReclaimable           491956        491956        491956        491956
 MEMORY| MemLikelyFree       177242192     177242192     177242192     177242192


 GENERATE|  Preliminary Number of Bonds generated:                             0
 GENERATE|  Achieved consistency in connectivity generation.

 *******************************************************************************
 *******************************************************************************
 **                                                                           **
 **     #####                         ##              ##                      **
 **    ##   ##            ##          ##              ##                      **
 **   ##     ##                       ##            ######                    **
 **   ##     ##  ##   ##  ##   #####  ##  ##   ####   ##    #####    #####    **
 **   ##     ##  ##   ##  ##  ##      ## ##   ##      ##   ##   ##  ##   ##   **
 **   ##  ## ##  ##   ##  ##  ##      ####     ###    ##   ######   ######    **
 **    ##  ###   ##   ##  ##  ##      ## ##      ##   ##   ##       ##        **
 **     #######   #####   ##   #####  ##  ##  ####    ##    #####   ##        **
 **           ##                                                    ##        **
 **                                                                           **
 **                                                ... make the atoms dance   **
 **                                                                           **
 **            Copyright (C) by CP2K developers group (2000 - 2019)           **
 **                                                                           **
 *******************************************************************************

 *** WARNING in qs_environment.F:1310 :: More added MOs requested than ***
 *** available. The full set of unoccupied MOs will be used.           ***



 TOTAL NUMBERS AND MAXIMUM NUMBERS

  Total number of            - Atomic kinds:                                   3
                             - Atoms:                                         20
                             - Shell sets:                                    96
                             - Shells:                                       132
                             - Primitive Cartesian functions:                220
                             - Cartesian basis functions:                    308
                             - Spherical basis functions:                    292

  Maximum angular momentum of the orbital basis functions:                     2


 SCF PARAMETERS         Density guess:                                   RESTART
                        --------------------------------------------------------
                        max_scf:                                             100
                        max_scf_history:                                       0
                        max_diis:                                              4
                        --------------------------------------------------------
                        eps_scf:                                        1.00E-06
                        eps_scf_history:                                0.00E+00
                        eps_diis:                                       1.00E-01
                        eps_eigval:                                     1.00E-05
                        --------------------------------------------------------
                        level_shift [a.u.]:                                 0.00
                        added MOs                                       261    0
                        --------------------------------------------------------
                        Mixing method:                            BROYDEN_MIXING
                                                charge density mixing in g-space
                        --------------------------------------------------------
                        No outer SCF
 
 RI-RPA| using GPW style
 

 Number of electrons:                                                         62
 Number of occupied orbitals:                                                 31
 Number of molecular orbitals:                                               292

 Number of orbital functions:                                                292
 Number of independent orbital functions:                                    292

 Extrapolation method: initial_guess


 SCF WAVEFUNCTION OPTIMIZATION

  Step     Update method      Time    Convergence         Total energy    Change
  ------------------------------------------------------------------------------
     1 NoMix/Diag. 0.20E+00    1.5     0.00000008      -348.7643501101 -3.49E+02

  *** SCF run converged in     1 steps ***


  Electronic density on regular grids:        -47.0305963096       14.9694036904
  Core density on regular grids:               62.0000000000       -0.0000000000
  Hard and soft densities (Lebedev):         -372.8711352318     -357.9017309568
  Total Rho_soft + Rho1_hard - Rho1_soft      -62.0000005845
  Total charge density (r-space):              -0.0000005845
  Total Rho_soft + Rho0_soft (g-space):        -0.0000006939

  Overlap energy of the core charge distribution:               0.00001373821577
  Self energy of the core charge distribution:               -293.62503406765973
  Core Hamiltonian energy:                                    -51.52046405663798
  Hartree energy:                                             110.66703322765584
  Exchange-correlation energy:                                -20.82143419135904

  GAPW| Exc from hard and soft atomic rho1:                   -29.80196801077676
  GAPW| local Eh = 1 center integrals:                        -63.66249674955307

  Total energy:                                              -348.76435011011495
  
  Eigenvalues of the occupied subspace spin            1
 ---------------------------------------------
     -18.76760545      -9.94970340      -9.89830452      -9.89622751
      -9.89050154      -9.88628457      -9.88598376      -9.88296390
      -0.93567069      -0.75798619      -0.68976662      -0.67622337
      -0.61729883      -0.54974343      -0.53447137      -0.48695135
      -0.44647652      -0.41096170      -0.39956037      -0.39166376
      -0.37098833      -0.35176615      -0.34863089      -0.34097860
      -0.32811825      -0.30881195      -0.29125399      -0.28540771
      -0.26044672      -0.23346625      -0.21728882
 Fermi Energy [eV] :   -5.912729
  
  Lowest eigenvalues of the unoccupied subspace spin            1
 ---------------------------------------------
      -0.03334571      -0.02205239      -0.00422488       0.00214887
       0.00616492       0.01971239       0.02308566       0.02531767
       0.02950853       0.04168985


 RI-RPA section
 --------------

  Used number of processes per group:                                          1
  Maximum allowed memory usage per MPI processes:                    4000.00 MiB
  GPW_INFO| Density cutoff [a.u.]:                                         150.0
  GPW_INFO| Relative density cutoff [a.u.]:                                 25.0
  RI_INFO| Cholesky decomposition group size:                                  1
  RI_INFO| Number of groups for auxiliary basis functions                     16
  RI_INFO| Occupied  basis set size:                                          31
  RI_INFO| Virtual   basis set size:                                         261
  RI_INFO| Auxiliary basis set size:                                         852
  RI_INFO| Total memory for (ia|K) integrals:                          52.59 MiB
  RI_INFO| Total memory for G0W0-(nm|K) integrals:                     75.92 MiB
  RI_INFO| Minimum required memory per MPI process:                     6.67 MiB
  RI_INFO| Available memory per MPI process:                         3412.00 MiB
  RI_INFO| Group size for frequency integration:                               8
  INTEG_INFO| Clenshaw-Curtius quadrature
  INTEG_INFO| Number of integration points:                                   50
  INTEG_INFO| Number of integration points per RPA group:                     25
  MATRIX_INFO| Number row processes:                                           8
  MATRIX_INFO| Number column processes:                                        1
  MATRIX_INFO| Row block size:                                               505
  MATRIX_INFO| Column block size:                                            426
  INTEG_INFO| Scaling parameter:                                         0.20000
  PERFORMANCE| PDGEMM flop rate (Gflops / MPI rank):                       21.18
  
  GW quasiparticle energies
  -------------------------
   
  The GW quasiparticle energies are calculated according to: 
  E_GW = E_SCF + Z * ( Sigc(E_SCF) + Sigx - vxc )
   
  The energy unit of the following table is eV.  Sigc_fit is a very conservative
  estimate of the statistical error of the fitting.
   
            MO      E_SCF       Sigc   Sigc_fit   Sigx-vxc          Z       E_GW
    12 ( occ )    -18.401      6.433      0.000     -8.807      1.000    -20.775
    13 ( occ )    -16.798      5.377      0.000     -8.195      1.000    -19.616
    14 ( occ )    -14.959      4.393      0.000     -7.356      1.000    -17.922
    15 ( occ )    -14.544      4.190      0.000     -7.193      1.000    -17.547
    16 ( occ )    -13.251      3.338      0.000     -6.475      1.000    -16.388
    17 ( occ )    -12.149      2.837      0.000     -5.902      1.000    -15.215
    18 ( occ )    -11.183      2.505      0.000     -5.815      1.000    -14.494
    19 ( occ )    -10.873      2.237      0.000     -5.636      1.000    -14.271
    20 ( occ )    -10.658      2.356      0.000     -5.386      1.000    -13.687
    21 ( occ )    -10.095      2.332      0.000     -5.552      1.000    -13.315
    22 ( occ )     -9.572      2.084      0.000     -5.115      1.000    -12.603
    23 ( occ )     -9.487      2.137      0.000     -5.094      1.000    -12.443
    24 ( occ )     -9.278      2.124      0.000     -5.349      1.000    -12.503
    25 ( occ )     -8.929      1.770      0.000     -4.815      1.000    -11.973
    26 ( occ )     -8.403      2.346      0.000     -5.303      1.000    -11.360
    27 ( occ )     -7.925      1.511      0.000     -4.652      1.000    -11.066
    28 ( occ )     -7.766      1.664      0.000     -4.526      1.000    -10.628
    29 ( occ )     -7.087      1.464      0.000     -4.291      1.000     -9.914
    30 ( occ )     -6.353      1.699      0.000     -4.378      1.000     -9.032
    31 ( occ )     -5.913      1.978      0.000     -4.675      1.000     -8.610
    32 ( vir )     -0.907     -2.175      0.000      4.912      1.000      1.829
    33 ( vir )     -0.600     -0.903      0.000      2.473      1.000      0.970
    34 ( vir )     -0.115     -0.755      0.000      2.155      1.000      1.285
    35 ( vir )      0.058     -0.690      0.000      1.993      1.000      1.362
    36 ( vir )      0.168     -0.666      0.000      1.935      1.000      1.438
    37 ( vir )      0.536     -0.757      0.000      2.133      1.000      1.913
    38 ( vir )      0.628     -0.652      0.000      1.903      1.000      1.879
    39 ( vir )      0.689     -0.588      0.000      1.746      1.000      1.847
    40 ( vir )      0.803     -0.571      0.000      1.720      1.000      1.953
    41 ( vir )      1.134     -0.525      0.000      1.599      1.000      2.208
    42 ( vir )      1.413     -0.631      0.000      1.809      1.000      2.591
    43 ( vir )      1.483     -0.574      0.000      1.718      1.000      2.627
    44 ( vir )      1.595     -0.647      0.000      1.849      1.000      2.796
    45 ( vir )      1.855     -0.702      0.000      1.993      1.000      3.147
    46 ( vir )      2.098     -0.735      0.000      2.027      1.000      3.389
    47 ( vir )      2.198     -0.845      0.000      2.291      1.000      3.644
    48 ( vir )      2.328     -0.789      0.000      2.068      1.000      3.608
    49 ( vir )      2.422     -0.757      0.000      2.098      1.000      3.763
    50 ( vir )      2.516     -0.741      0.000      1.986      1.000      3.761
    51 ( vir )      2.650     -0.691      0.000      1.863      1.000      3.822
   
  GW HOMO-LUMO gap (eV)                                                    10.44
  
  PERFORMANCE| PDGEMM flop rate (Gflops / MPI rank):                       28.81
  
  GW quasiparticle energies
  -------------------------
   
  The GW quasiparticle energies are calculated according to: 
  E_GW = E_SCF + Z * ( Sigc(E_SCF) + Sigx - vxc )
   
  The energy unit of the following table is eV.  Sigc_fit is a very conservative
  estimate of the statistical error of the fitting.
   
            MO      E_SCF       Sigc   Sigc_fit   Sigx-vxc          Z       E_GW
    12 ( occ )    -20.775      4.466      0.000     -8.807      1.000    -22.742
    13 ( occ )    -19.616      3.681      0.000     -8.195      1.000    -21.311
    14 ( occ )    -17.922      2.995      0.000     -7.356      1.000    -19.320
    15 ( occ )    -17.547      2.891      0.000     -7.193      1.000    -18.846
    16 ( occ )    -16.388      2.236      0.000     -6.475      1.000    -17.490
    17 ( occ )    -15.215      1.851      0.000     -5.902      1.000    -16.201
    18 ( occ )    -14.494      1.809      0.000     -5.815      1.000    -15.189
    19 ( occ )    -14.271      1.588      0.000     -5.636      1.000    -14.920
    20 ( occ )    -13.687      1.584      0.000     -5.386      1.000    -14.460
    21 ( occ )    -13.315      1.540      0.000     -5.552      1.000    -14.107
    22 ( occ )    -12.603      1.307      0.000     -5.115      1.000    -13.380
    23 ( occ )    -12.443      1.270      0.000     -5.094      1.000    -13.310
    24 ( occ )    -12.503      1.418      0.000     -5.349      1.000    -13.209
    25 ( occ )    -11.973      1.092      0.000     -4.815      1.000    -12.651
    26 ( occ )    -11.360      1.546      0.000     -5.303      1.000    -12.159
    27 ( occ )    -11.066      0.903      0.000     -4.652      1.000    -11.674
    28 ( occ )    -10.628      1.071      0.000     -4.526      1.000    -11.222
    29 ( occ )     -9.914      0.923      0.000     -4.291      1.000    -10.455
    30 ( occ )     -9.032      1.101      0.000     -4.378      1.000     -9.629
    31 ( occ )     -8.610      1.344      0.000     -4.675      1.000     -9.244
    32 ( vir )      1.829   -294.405      0.000      4.912      1.000      1.829
    33 ( vir )      0.970   -446.964      0.000      2.473      1.000      0.970
    34 ( vir )      1.285   -276.751      0.000      2.155      1.000      1.285
    35 ( vir )      1.362     -5.526      0.000      1.993      1.000     -3.475
    36 ( vir )      1.438   -262.367      0.000      1.935      1.000      1.438
    37 ( vir )      1.913   -344.889      0.000      2.133      1.000      1.913
    38 ( vir )      1.879     -6.322      0.000      1.903      1.000     -3.791
    39 ( vir )      1.847   -363.312      0.000      1.746      1.000      1.847
    40 ( vir )      1.953     -6.256      0.000      1.720      1.000     -3.733
    41 ( vir )      2.208     -5.393      0.000      1.599      1.000     -2.660
    42 ( vir )      2.591      4.320      0.000      1.809      1.000      7.543
    43 ( vir )      2.627      4.214      0.000      1.718      1.000      7.415
    44 ( vir )      2.796   -182.652      0.000      1.849      1.000      2.796
    45 ( vir )      3.147     24.162      0.000      1.993      1.000     28.011
    46 ( vir )      3.389     -6.960      0.000      2.027      1.000     -2.835
    47 ( vir )      3.644     -4.305      0.000      2.291      1.000      0.184
    48 ( vir )      3.608      3.171      0.000      2.068      1.000      7.568
    49 ( vir )      3.763     -5.807      0.000      2.098      1.000     -1.287
    50 ( vir )      3.761      3.013      0.000      1.986      1.000      7.515
    51 ( vir )      3.822      2.855      0.000      1.863      1.000      7.368
   
  GW HOMO-LUMO gap (eV)                                                    11.07
  
  PERFORMANCE| PDGEMM flop rate (Gflops / MPI rank):                       32.01
  
  GW quasiparticle energies
  -------------------------
   
  The GW quasiparticle energies are calculated according to: 
  E_GW = E_SCF + Z * ( Sigc(E_SCF) + Sigx - vxc )
   
  The energy unit of the following table is eV.  Sigc_fit is a very conservative
  estimate of the statistical error of the fitting.
   
            MO      E_SCF       Sigc   Sigc_fit   Sigx-vxc          Z       E_GW
    12 ( occ )    -22.742      4.124      0.000     -8.807      1.000    -23.084
    13 ( occ )    -21.311      3.416      0.000     -8.195      1.000    -21.576
    14 ( occ )    -19.320      2.782      0.000     -7.356      1.000    -19.533
    15 ( occ )    -18.846      2.688      0.000     -7.193      1.000    -19.049
    16 ( occ )    -17.490      2.076      0.000     -6.475      1.000    -17.650
    17 ( occ )    -16.201      1.743      0.000     -5.902      1.000    -16.308
    18 ( occ )    -15.189      1.699      0.000     -5.815      1.000    -15.299
    19 ( occ )    -14.920      1.488      0.000     -5.636      1.000    -15.020
    20 ( occ )    -14.460      1.482      0.000     -5.386      1.000    -14.561
    21 ( occ )    -14.107      1.443      0.000     -5.552      1.000    -14.204
    22 ( occ )    -13.380      1.210      0.000     -5.115      1.000    -13.477
    23 ( occ )    -13.310      1.177      0.000     -5.094      1.000    -13.404
    24 ( occ )    -13.209      1.326      0.000     -5.349      1.000    -13.301
    25 ( occ )    -12.651      1.006      0.000     -4.815      1.000    -12.737
    26 ( occ )    -12.159      1.454      0.000     -5.303      1.000    -12.252
    27 ( occ )    -11.674      0.830      0.000     -4.652      1.000    -11.747
    28 ( occ )    -11.222      0.997      0.000     -4.526      1.000    -11.295
    29 ( occ )    -10.455      0.856      0.000     -4.291      1.000    -10.522
    30 ( occ )     -9.629      1.033      0.000     -4.378      1.000     -9.698
    31 ( occ )     -9.244      1.270      0.000     -4.675      1.000     -9.318
    32 ( vir )      1.829   -231.340      0.000      4.912      1.000      1.829
    33 ( vir )      0.970   -444.658      0.000      2.473      1.000      0.970
    34 ( vir )      1.285   -214.358      0.000      2.155      1.000      1.285
    35 ( vir )     -3.475     -5.499      0.000      1.993      1.000     -3.447
    36 ( vir )      1.438   -204.913      0.000      1.935      1.000      1.438
    37 ( vir )      1.913   -236.462      0.000      2.133      1.000      1.913
    38 ( vir )     -3.791     -6.311      0.000      1.903      1.000     -3.780
    39 ( vir )      1.847   -358.129      0.000      1.746      1.000      1.847
    40 ( vir )     -3.733     -6.260      0.000      1.720      1.000     -3.737
    41 ( vir )     -2.660     -5.318      0.000      1.599      1.000     -2.585
    42 ( vir )      7.543      4.278      0.000      1.809      1.000      7.500
    43 ( vir )      7.415      4.189      0.000      1.718      1.000      7.390
    44 ( vir )      2.796   -134.022      0.000      1.849      1.000      2.796
    45 ( vir )     28.011     22.418      0.000      1.993      1.000     26.266
    46 ( vir )     -2.835     -6.938      0.000      2.027      1.000     -2.814
    47 ( vir )      0.184     -4.066      0.000      2.291      1.000      0.423
    48 ( vir )      7.568      3.146      0.000      2.068      1.000      7.542
    49 ( vir )     -1.287     -5.687      0.000      2.098      1.000     -1.167
    50 ( vir )      7.515      2.980      0.000      1.986      1.000      7.482
    51 ( vir )      7.368      2.841      0.000      1.863      1.000      7.355
   
  GW HOMO-LUMO gap (eV)                                                    11.15
  
  PERFORMANCE| PDGEMM flop rate (Gflops / MPI rank):                       33.21
  
  GW quasiparticle energies
  -------------------------
   
  The GW quasiparticle energies are calculated according to: 
  E_GW = E_SCF + Z * ( Sigc(E_SCF) + Sigx - vxc )
   
  The energy unit of the following table is eV.  Sigc_fit is a very conservative
  estimate of the statistical error of the fitting.
   
            MO      E_SCF       Sigc   Sigc_fit   Sigx-vxc          Z       E_GW
    12 ( occ )    -23.084      4.078      0.000     -8.807      1.000    -23.130
    13 ( occ )    -21.576      3.384      0.000     -8.195      1.000    -21.608
    14 ( occ )    -19.533      2.754      0.000     -7.356      1.000    -19.561
    15 ( occ )    -19.049      2.662      0.000     -7.193      1.000    -19.075
    16 ( occ )    -17.650      2.053      0.000     -6.475      1.000    -17.673
    17 ( occ )    -16.308      1.717      0.000     -5.902      1.000    -16.334
    18 ( occ )    -15.299      1.680      0.000     -5.815      1.000    -15.318
    19 ( occ )    -15.020      1.471      0.000     -5.636      1.000    -15.037
    20 ( occ )    -14.561      1.466      0.000     -5.386      1.000    -14.578
    21 ( occ )    -14.204      1.427      0.000     -5.552      1.000    -14.220
    22 ( occ )    -13.477      1.195      0.000     -5.115      1.000    -13.492
    23 ( occ )    -13.404      1.162      0.000     -5.094      1.000    -13.418
    24 ( occ )    -13.301      1.311      0.000     -5.349      1.000    -13.316
    25 ( occ )    -12.737      0.993      0.000     -4.815      1.000    -12.750
    26 ( occ )    -12.252      1.439      0.000     -5.303      1.000    -12.267
    27 ( occ )    -11.747      0.818      0.000     -4.652      1.000    -11.759
    28 ( occ )    -11.295      0.985      0.000     -4.526      1.000    -11.308
    29 ( occ )    -10.522      0.844      0.000     -4.291      1.000    -10.534
    30 ( occ )     -9.698      1.021      0.000     -4.378      1.000     -9.709
    31 ( occ )     -9.318      1.258      0.000     -4.675      1.000     -9.330
    32 ( vir )      1.829   -233.351      0.000      4.912      1.000      1.829
    33 ( vir )      0.970   -443.990      0.000      2.473      1.000      0.970
    34 ( vir )      1.285   -216.971      0.000      2.155      1.000      1.285
    35 ( vir )     -3.447     -5.496      0.000      1.993      1.000     -3.445
    36 ( vir )      1.438   -206.158      0.000      1.935      1.000      1.438
    37 ( vir )      1.913   -234.322      0.000      2.133      1.000      1.913
    38 ( vir )     -3.780     -6.309      0.000      1.903      1.000     -3.778
    39 ( vir )      1.847   -357.446      0.000      1.746      1.000      1.847
    40 ( vir )     -3.737     -6.257      0.000      1.720      1.000     -3.734
    41 ( vir )     -2.585     -5.313      0.000      1.599      1.000     -2.580
    42 ( vir )      7.500      4.279      0.000      1.809      1.000      7.501
    43 ( vir )      7.390      4.191      0.000      1.718      1.000      7.392
    44 ( vir )      2.796   -134.007      0.000      1.849      1.000      2.796
    45 ( vir )     26.266     22.306      0.000      1.993      1.000     26.155
    46 ( vir )     -2.814     -6.933      0.000      2.027      1.000     -2.809
    47 ( vir )      0.423     -4.059      0.000      2.291      1.000      0.430
    48 ( vir )      7.542      3.146      0.000      2.068      1.000      7.543
    49 ( vir )     -1.167     -5.682      0.000      2.098      1.000     -1.161
    50 ( vir )      7.482      2.983      0.000      1.986      1.000      7.485
    51 ( vir )      7.355      2.843      0.000      1.863      1.000      7.356
   
  GW HOMO-LUMO gap (eV)                                                    11.16
  
  PERFORMANCE| PDGEMM flop rate (Gflops / MPI rank):                       33.20
  
  GW quasiparticle energies
  -------------------------
   
  The GW quasiparticle energies are calculated according to: 
  E_GW = E_SCF + Z * ( Sigc(E_SCF) + Sigx - vxc )
   
  The energy unit of the following table is eV.  Sigc_fit is a very conservative
  estimate of the statistical error of the fitting.
   
            MO      E_SCF       Sigc   Sigc_fit   Sigx-vxc          Z       E_GW
    12 ( occ )    -23.130      4.072      0.000     -8.807      1.000    -23.136
    13 ( occ )    -21.608      3.379      0.000     -8.195      1.000    -21.613
    14 ( occ )    -19.561      2.750      0.000     -7.356      1.000    -19.564
    15 ( occ )    -19.075      2.657      0.000     -7.193      1.000    -19.079
    16 ( occ )    -17.673      2.049      0.000     -6.475      1.000    -17.677
    17 ( occ )    -16.334      1.714      0.000     -5.902      1.000    -16.338
    18 ( occ )    -15.318      1.677      0.000     -5.815      1.000    -15.321
    19 ( occ )    -15.037      1.469      0.000     -5.636      1.000    -15.040
    20 ( occ )    -14.578      1.463      0.000     -5.386      1.000    -14.580
    21 ( occ )    -14.220      1.424      0.000     -5.552      1.000    -14.222
    22 ( occ )    -13.492      1.193      0.000     -5.115      1.000    -13.494
    23 ( occ )    -13.418      1.160      0.000     -5.094      1.000    -13.420
    24 ( occ )    -13.316      1.309      0.000     -5.349      1.000    -13.318
    25 ( occ )    -12.750      0.991      0.000     -4.815      1.000    -12.752
    26 ( occ )    -12.267      1.437      0.000     -5.303      1.000    -12.269
    27 ( occ )    -11.759      0.817      0.000     -4.652      1.000    -11.761
    28 ( occ )    -11.308      0.983      0.000     -4.526      1.000    -11.310
    29 ( occ )    -10.534      0.842      0.000     -4.291      1.000    -10.536
    30 ( occ )     -9.709      1.019      0.000     -4.378      1.000     -9.711
    31 ( occ )     -9.330      1.256      0.000     -4.675      1.000     -9.332
    32 ( vir )      1.829   -233.875      0.000      4.912      1.000      1.829
    33 ( vir )      0.970   -444.614      0.000      2.473      1.000      0.970
    34 ( vir )      1.285   -217.021      0.000      2.155      1.000      1.285
    35 ( vir )     -3.445     -5.495      0.000      1.993      1.000     -3.444
    36 ( vir )      1.438   -206.751      0.000      1.935      1.000      1.438
    37 ( vir )      1.913   -228.119      0.000      2.133      1.000      1.913
    38 ( vir )     -3.778     -6.309      0.000      1.903      1.000     -3.778
    39 ( vir )      1.847   -357.575      0.000      1.746      1.000      1.847
    40 ( vir )     -3.734     -6.257      0.000      1.720      1.000     -3.733
    41 ( vir )     -2.580     -5.312      0.000      1.599      1.000     -2.579
    42 ( vir )      7.501      4.279      0.000      1.809      1.000      7.502
    43 ( vir )      7.392      4.191      0.000      1.718      1.000      7.392
    44 ( vir )      2.796   -134.523      0.000      1.849      1.000      2.796
    45 ( vir )     26.155     22.143      0.000      1.993      1.000     25.991
    46 ( vir )     -2.809     -6.932      0.000      2.027      1.000     -2.808
    47 ( vir )      0.430     -4.058      0.000      2.291      1.000      0.431
    48 ( vir )      7.543      3.147      0.000      2.068      1.000      7.543
    49 ( vir )     -1.161     -5.680      0.000      2.098      1.000     -1.160
    50 ( vir )      7.485      2.984      0.000      1.986      1.000      7.486
    51 ( vir )      7.356      2.843      0.000      1.863      1.000      7.356
   
  GW HOMO-LUMO gap (eV)                                                    11.16
  
  PERFORMANCE| PDGEMM flop rate (Gflops / MPI rank):                       32.49
  
  GW quasiparticle energies
  -------------------------
   
  The GW quasiparticle energies are calculated according to: 
  E_GW = E_SCF + Z * ( Sigc(E_SCF) + Sigx - vxc )
   
  The energy unit of the following table is eV.  Sigc_fit is a very conservative
  estimate of the statistical error of the fitting.
   
            MO      E_SCF       Sigc   Sigc_fit   Sigx-vxc          Z       E_GW
    12 ( occ )    -23.136      4.070      0.000     -8.807      1.000    -23.137
    13 ( occ )    -21.613      3.379      0.000     -8.195      1.000    -21.613
    14 ( occ )    -19.564      2.750      0.000     -7.356      1.000    -19.565
    15 ( occ )    -19.079      2.657      0.000     -7.193      1.000    -19.080
    16 ( occ )    -17.677      2.049      0.000     -6.475      1.000    -17.677
    17 ( occ )    -16.338      1.713      0.000     -5.902      1.000    -16.338
    18 ( occ )    -15.321      1.677      0.000     -5.815      1.000    -15.322
    19 ( occ )    -15.040      1.468      0.000     -5.636      1.000    -15.040
    20 ( occ )    -14.580      1.463      0.000     -5.386      1.000    -14.581
    21 ( occ )    -14.222      1.424      0.000     -5.552      1.000    -14.223
    22 ( occ )    -13.494      1.193      0.000     -5.115      1.000    -13.494
    23 ( occ )    -13.420      1.160      0.000     -5.094      1.000    -13.420
    24 ( occ )    -13.318      1.309      0.000     -5.349      1.000    -13.318
    25 ( occ )    -12.752      0.991      0.000     -4.815      1.000    -12.753
    26 ( occ )    -12.269      1.437      0.000     -5.303      1.000    -12.269
    27 ( occ )    -11.761      0.816      0.000     -4.652      1.000    -11.761
    28 ( occ )    -11.310      0.983      0.000     -4.526      1.000    -11.310
    29 ( occ )    -10.536      0.842      0.000     -4.291      1.000    -10.536
    30 ( occ )     -9.711      1.019      0.000     -4.378      1.000     -9.712
    31 ( occ )     -9.332      1.256      0.000     -4.675      1.000     -9.332
    32 ( vir )      1.829   -233.601      0.000      4.912      1.000      1.829
    33 ( vir )      0.970   -444.458      0.000      2.473      1.000      0.970
    34 ( vir )      1.285   -217.227      0.000      2.155      1.000      1.285
    35 ( vir )     -3.444     -5.495      0.000      1.993      1.000     -3.444
    36 ( vir )      1.438   -206.629      0.000      1.935      1.000      1.438
    37 ( vir )      1.913   -238.877      0.000      2.133      1.000      1.913
    38 ( vir )     -3.778     -6.309      0.000      1.903      1.000     -3.778
    39 ( vir )      1.847   -354.270      0.000      1.746      1.000      1.847
    40 ( vir )     -3.733     -6.257      0.000      1.720      1.000     -3.733
    41 ( vir )     -2.579     -5.312      0.000      1.599      1.000     -2.579
    42 ( vir )      7.502      4.279      0.000      1.809      1.000      7.502
    43 ( vir )      7.392      4.191      0.000      1.718      1.000      7.392
    44 ( vir )      2.796   -133.500      0.000      1.849      1.000      2.796
    45 ( vir )     25.991     22.210      0.000      1.993      1.000     26.058
    46 ( vir )     -2.808     -6.932      0.000      2.027      1.000     -2.808
    47 ( vir )      0.431     -4.058      0.000      2.291      1.000      0.431
    48 ( vir )      7.543      3.147      0.000      2.068      1.000      7.543
    49 ( vir )     -1.160     -5.681      0.000      2.098      1.000     -1.160
    50 ( vir )      7.486      2.984      0.000      1.986      1.000      7.486
    51 ( vir )      7.356      2.843      0.000      1.863      1.000      7.356
   
  GW HOMO-LUMO gap (eV)                                                    11.16
  

  Total RI-RPA Time=                                                   37.152638
  RI-RPA energy  =                                             -1.72159568594582

  Total EXX Time=                                                       0.413305
  EXX energy  =                                                 0.00000000000000

 ENERGY| Total FORCE_EVAL ( QS ) energy (a.u.):             -299.862543591887288


 -------------------------------------------------------------------------------
 -                                                                             -
 -                                DBCSR STATISTICS                             -
 -                                                                             -
 -------------------------------------------------------------------------------
 COUNTER                                    TOTAL       BLAS       SMM       ACC
 flops     4 x     6 x     6                32256       0.0%    100.0%      0.0%
 flops     4 x     5 x     6                80640       0.0%    100.0%      0.0%
 flops     4 x     6 x     5                80640       0.0%    100.0%      0.0%
 flops     4 x     5 x     5               201600       0.0%    100.0%      0.0%
 flops    12 x     6 x     6               898560       0.0%    100.0%      0.0%
 flops     4 x    16 x     6              1032192       0.0%    100.0%      0.0%
 flops     4 x     6 x    16              1032192       0.0%    100.0%      0.0%
 flops     9 x    23 x     9              1609632       0.0%    100.0%      0.0%
 flops     9 x     9 x    68              1718496       0.0%    100.0%      0.0%
 flops    12 x     5 x     6              2246400       0.0%    100.0%      0.0%
 flops    12 x     6 x     5              2246400       0.0%    100.0%      0.0%
 flops     9 x     9 x    96              2426112       0.0%    100.0%      0.0%
 flops     4 x    16 x     5              2580480       0.0%    100.0%      0.0%
 flops     4 x     5 x    16              2580480       0.0%    100.0%      0.0%
 flops    23 x     9 x    68              2702592       0.0%    100.0%      0.0%
 flops     9 x    23 x    68              2702592       0.0%    100.0%      0.0%
 flops    23 x    23 x     9              2742336       0.0%    100.0%      0.0%
 flops     9 x    23 x    23              2742336       0.0%    100.0%      0.0%
 flops     9 x     9 x    64              3234816       0.0%    100.0%      0.0%
 flops    23 x     9 x    96              3815424       0.0%    100.0%      0.0%
 flops     9 x    23 x    96              3815424       0.0%    100.0%      0.0%
 flops    23 x    23 x    23              4672128       0.0%    100.0%      0.0%
 flops    23 x     9 x    64              5087232       0.0%    100.0%      0.0%
 flops     9 x    23 x    64              5087232       0.0%    100.0%      0.0%
 flops    23 x    23 x    68              5179968       0.0%    100.0%      0.0%
 flops    12 x     5 x     5              5616000       0.0%    100.0%      0.0%
 flops     8 x     4 x     9              5889024       0.0%    100.0%      0.0%
 flops    23 x    23 x    96              7312896       0.0%    100.0%      0.0%
 flops    23 x    23 x    64              9750528       0.0%    100.0%      0.0%
 flops     8 x     4 x    23             10033152       0.0%    100.0%      0.0%
 flops     1 x     1 x     1             10305536       0.0%    100.0%      0.0%
 flops    16 x     6 x     6             21841920       0.0%    100.0%      0.0%
 flops    32 x     4 x     9             23556096       0.0%    100.0%      0.0%
 flops    31 x     5 x     9             28524960       0.0%    100.0%      0.0%
 flops    12 x    16 x     6             28753920       0.0%    100.0%      0.0%
 flops    12 x     6 x    16             28753920       0.0%    100.0%      0.0%
 flops     4 x    16 x    16             33030144       0.0%    100.0%      0.0%
 flops    32 x     4 x    23             40132608       0.0%    100.0%      0.0%
 flops    31 x     5 x    23             48598080       0.0%    100.0%      0.0%
 flops    73 x    73 x    73             49794176       0.0%    100.0%      0.0%
 flops    16 x     5 x     6             54604800       0.0%    100.0%      0.0%
 flops    16 x     6 x     5             54604800       0.0%    100.0%      0.0%
 flops    12 x     5 x    16             71884800       0.0%    100.0%      0.0%
 flops    12 x    16 x     5             71884800       0.0%    100.0%      0.0%
 flops    16 x     5 x     5            136512000       0.0%    100.0%      0.0%
 flops     9 x     8 x     9            159003648       0.0%    100.0%      0.0%
 flops    23 x     8 x     9            270895104       0.0%    100.0%      0.0%
 flops     9 x     8 x    23            270895104       0.0%    100.0%      0.0%
 flops     8 x    32 x     9            424009728       0.0%    100.0%      0.0%
 flops    23 x     8 x    23            461524992       0.0%    100.0%      0.0%
 flops     9 x    31 x     9            616139136       0.0%    100.0%      0.0%
 flops     9 x    32 x     9            636761088       0.0%    100.0%      0.0%
 flops    16 x     6 x    16            698941440       0.0%    100.0%      0.0%
 flops    16 x    16 x     6            698941440       0.0%    100.0%      0.0%
 flops     8 x    32 x    23            722386944       0.0%    100.0%      0.0%
 flops    12 x    16 x    16            920125440       0.0%    100.0%      0.0%
 flops    23 x    31 x     9           1049718528       0.0%    100.0%      0.0%
 flops     9 x    31 x    23           1049718528       0.0%    100.0%      0.0%
 flops    23 x    32 x     9           1084852224       0.0%    100.0%      0.0%
 flops     9 x    32 x    23           1084852224       0.0%    100.0%      0.0%
 flops    31 x    32 x     9           1460477952       0.0%    100.0%      0.0%
 flops    32 x    32 x     9           1696038912       0.0%    100.0%      0.0%
 flops    16 x     5 x    16           1747353600       0.0%    100.0%      0.0%
 flops    16 x    16 x     5           1747353600       0.0%    100.0%      0.0%
 flops    23 x    31 x    23           1788409344       0.0%    100.0%      0.0%
 flops    23 x    32 x    23           1848266752       0.0%    100.0%      0.0%
 flops    31 x    32 x    23           2488221696       0.0%    100.0%      0.0%
 flops    32 x    32 x    23           2889547776       0.0%    100.0%      0.0%
 flops    16 x    16 x    16          22366126080       0.0%    100.0%      0.0%
 flops inhomo. stacks                    33554432     100.0%      0.0%      0.0%
 flops total                        49.016048E+09       0.1%     99.9%      0.0%
 flops max/rank                      3.415237E+09       0.5%     99.5%      0.0%
 matmuls inhomo. stacks                      4096     100.0%      0.0%      0.0%
 matmuls total                           11825440       0.0%    100.0%      0.0%
 number of processed stacks                 32244       0.0%    100.0%      0.0%
 average stack size                                   682.7     366.7       0.0
 marketing flops                    48.896504E+09
 -------------------------------------------------------------------------------
 # multiplications                            221
 max memory usage/rank             681.054208E+06
 # max total images/rank                        1
 # max 3D layers                                1
 # MPI messages exchanged                     544
 MPI messages size (bytes):
  total size                        95.857088E+06
  min size                           0.000000E+00
  max size                           3.707904E+06
  average size                     176.207875E+03
 MPI breakdown and total messages size (bytes):
             size <=      128                  48                        0
       128 < size <=     8192                  16                   131072
      8192 < size <=    32768                  64                   978144
     32768 < size <=   131072                 384                 16370688
    131072 < size <=  4194304                  32                 78377184
   4194304 < size <= 16777216                   0                        0
  16777216 < size                               0                        0
 -------------------------------------------------------------------------------
 -                                                                             -
 -                      DBCSR MESSAGE PASSING PERFORMANCE                      -
 -                                                                             -
 -------------------------------------------------------------------------------
 ROUTINE             CALLS      AVE VOLUME [Bytes]
 MP_Group              181
 MP_Bcast               98                     10.
 MP_Allreduce         1066                     19.
 MP_Alltoall          1857                  37703.
 MP_Wait              5464
 MP_comm_split          28
 MP_ISend             1294                  30638.
 MP_IRecv             1294                  29692.
 MP_Memory            8160
 -------------------------------------------------------------------------------

 MEMORY| Estimated peak process memory [MiB]                                 640

 -------------------------------------------------------------------------------
 -                                                                             -
 -                         MESSAGE PASSING PERFORMANCE                         -
 -                                                                             -
 -------------------------------------------------------------------------------

 ROUTINE             CALLS      AVE VOLUME [Bytes]
 MP_Group                6
 MP_Bcast              887                9177781.
 MP_Allreduce          685                  42579.
 MP_Sync                15
 MP_Alltoall            56               12701914.
 MP_SendRecv            30                  21026.
 MP_ISendRecv          180                  77088.
 MP_Wait               769
 MP_comm_split          11
 MP_ISend             1300                 403280.
 MP_IRecv              401                 516239.
 MP_Recv                 9                  74752.
 -------------------------------------------------------------------------------


 -------------------------------------------------------------------------------
 -                                                                             -
 -                           R E F E R E N C E S                               -
 -                                                                             -
 -------------------------------------------------------------------------------
 
 CP2K version 7.1, the CP2K developers group (2019).
 CP2K is freely available from https://www.cp2k.org/ .

 Schuett, Ole; Messmer, Peter; Hutter, Juerg; VandeVondele, Joost. 
 Electronic Structure Calculations on Graphics Processing Units, John
 Wiley & Sons, Ltd, 173-190 (2016). 
 GPU-Accelerated Sparse Matrix-Matrix Multiplication for
 Linear Scaling Density Functional Theory.
 https://dx.doi.org/10.1002/9781118670712.ch8

 Del Ben, M; Schuett, O; Wentz, T; Messmer, P; Hutter, J;
 VandeVondele, J. 
 COMPUTER PHYSICS COMMUNICATIONS, 187, 120-129 (2015). 
 Enabling simulation at the fifth rung of DFT: Large scale RPA
 calculations with excellent time to solution.
 https://dx.doi.org/10.1016/j.cpc.2014.10.021

 Borstnik, U; VandeVondele, J; Weber, V; Hutter, J. 
 PARALLEL COMPUTING, 40 (5-6), 47-58 (2014). 
 Sparse matrix multiplication: The distributed block-compressed sparse
 row library.
 https://dx.doi.org/10.1016/j.parco.2014.03.012

 Hutter, J; Iannuzzi, M; Schiffmann, F; VandeVondele, J. 
 WIREs Comput Mol Sci., 4 (1), 15-25 (2014). 
 CP2K: atomistic simulations of condensed matter systems.
 https://dx.doi.org/10.1002/wcms.1159

 Del Ben, M; Hutter, J; VandeVondele, J. 
 JOURNAL OF CHEMICAL THEORY AND COMPUTATION, 9 (6), 2654-2671 (2013). 
 Electron Correlation in the Condensed Phase from a Resolution of
 Identity Approach Based on the Gaussian and Plane Waves Scheme.
 https://dx.doi.org/10.1021/ct4002202

 Del Ben, M; Hutter, J; VandeVondele, J. 
 JOURNAL OF CHEMICAL THEORY AND COMPUTATION, 8 (11), 4177-4188 (2012). 
 Second-Order Moller-Plesset Perturbation Theory in the Condensed Phase:
 An Efficient and Massively Parallel Gaussian and Plane Waves Approach.
 https://dx.doi.org/10.1021/ct300531w

 Guidon, M; Hutter, J; VandeVondele, J. 
 JOURNAL OF CHEMICAL THEORY AND COMPUTATION, 5 (11), 3010-3021 (2009). 
 Robust Periodic Hartree-Fock Exchange for Large-Scale Simulations Using
 Gaussian Basis Sets.
 https://dx.doi.org/10.1021/ct900494g

 Guidon, M; Schiffmann, F; Hutter, J; VandeVondele, J. 
 JOURNAL OF CHEMICAL PHYSICS, 128 (21), 214104 (2008). 
 Ab initio molecular dynamics using hybrid density functionals.
 https://dx.doi.org/10.1063/1.2931945

 Frigo, M; Johnson, SG. 
 PROCEEDINGS OF THE IEEE, 93 (2), 216-231 (2005). 
 The design and implementation of FFTW3.
 https://dx.doi.org/10.1109/JPROC.2004.840301

 Lippert, G; Hutter, J; Parrinello, M. 
 THEORETICAL CHEMISTRY ACCOUNTS, 103 (2), 124-140 (1999). 
 The Gaussian and augmented-plane-wave density functional method for ab
 initio molecular dynamics simulations.
 https://dx.doi.org/10.1007/s002140050523

 Krack, M; Parrinello, M. 
 PHYSICAL CHEMISTRY CHEMICAL PHYSICS, 2 (10), 2105-2112 (2000). 
 All-electron ab-initio molecular dynamics.
 https://dx.doi.org/10.1039/b001167n

 Martyna, GJ; Tuckerman, ME. 
 JOURNAL OF CHEMICAL PHYSICS, 110 (6), 2810-2821 (1999). 
 A reciprocal space based method for treating long range interactions in
 ab initio and force-field-based calculations in clusters.
 https://dx.doi.org/10.1063/1.477923

 Perdew, JP; Burke, K; Ernzerhof, M. 
 PHYSICAL REVIEW LETTERS, 77 (18), 3865-3868 (1996). 
 Generalized gradient approximation made simple.
 https://dx.doi.org/10.1103/PhysRevLett.77.3865


 -------------------------------------------------------------------------------
 -                                                                             -
 -                                T I M I N G                                  -
 -                                                                             -
 -------------------------------------------------------------------------------
 SUBROUTINE                       CALLS  ASD         SELF TIME        TOTAL TIME
                                MAXIMUM       AVERAGE  MAXIMUM  AVERAGE  MAXIMUM
 CP2K                                 1  1.0    0.010    0.012   40.809   40.811
 qs_energies                          1  2.0    0.000    0.000   39.718   39.720
 mp2_main                             1  3.0    0.000    0.000   37.582   37.586
 mp2_gpw_main                         1  4.0    0.000    0.000   37.152   37.153
 rpa_ri_compute_en                    1  5.0    0.000    0.000   35.202   35.205
 rpa_num_int                          1  6.0    0.001    0.001   35.098   35.099
 cp_gemm                            301  9.5    0.001    0.001   30.522   30.751
 cp_gemm_fm_gemm                    301 10.5    0.001    0.001   30.520   30.750
 cp_fm_gemm                         301 11.5   30.519   30.749   30.519   30.749
 GW_matrix_operations               150  7.0    0.009    0.010   22.155   22.343
 calc_vec_W_gw                      150  8.0    1.225    1.342   21.020   21.285
 rpa_num_int_RPA_matrix_operati     150  7.0    0.001    0.001   12.890   13.066
 calc_mat_Q                         150  8.0    0.001    0.001   12.303   12.483
 contract_S_to_Q                    150  9.0    0.001    0.002   11.439   11.622
 mp2_ri_gpw_compute_in                1  5.0    0.002    0.003    1.946    1.948
 mp2_ri_gpw_compute_in_loop           1  6.0    0.000    0.000    1.885    1.887
 qs_ks_build_kohn_sham_matrix         2  6.0    0.000    0.001    1.846    1.846
 scf_env_do_scf                       1  3.0    0.000    0.000    1.679    1.680
 scf_env_do_scf_inner_loop            1  4.0    0.000    0.000    1.679    1.680
 pw_transfer                         43  8.7    0.002    0.002    1.451    1.493
 fft_wrap_pw1pw2                     35 10.0    0.000    0.000    1.425    1.466
 qs_ks_update_qs_env                  1  5.0    0.000    0.000    1.436    1.437
 rebuild_ks_matrix                    1  6.0    0.000    0.000    1.436    1.436
 fft_wrap_pw1pw2_250                 18 10.9    0.089    0.093    1.177    1.214
 fft3d_ps                            35 12.0    0.644    0.687    1.048    1.096
 mp2_eri_3c_integrate                 1  7.0    0.082    0.099    0.875    0.978
 cp_fm_cholesky_invert              150  8.0    0.780    0.917    0.780    0.917
 integrate_set_3c                111435  8.0    0.605    0.684    0.793    0.891
 calc_fm_mat_S_rpa                  150  9.0    0.864    0.887    0.864    0.887
 contract_B_L                         2  7.0    0.001    0.001    0.729    0.822
 -------------------------------------------------------------------------------

 The number of warnings for this run is : 1
 
 -------------------------------------------------------------------------------
  **** **** ******  **  PROGRAM ENDED AT                 2021-07-20 05:12:53.221
 ***** ** ***  *** **   PROGRAM RAN ON                                     n0829
 **    ****   ******    PROGRAM RAN BY                                 ka_bh5670
 ***** **    ** ** **   PROGRAM PROCESS ID                               2018772
  **** **  *******  **  PROGRAM STOPPED IN /tmp/ka_bh5670.3075306/bh5670/sim/006
                                           855
