 DBCSR| CPU Multiplication driver                                           XSMM
 DBCSR| Multrec recursion limit                                              512
 DBCSR| Multiplication stack size                                           1000
 DBCSR| Maximum elements for images                                    UNLIMITED
 DBCSR| Multiplicative factor virtual images                                   1
 DBCSR| Use multiplication densification                                       T
 DBCSR| Multiplication size stacks                                             3
 DBCSR| Number of 3D layers                                               SINGLE
 DBCSR| Use MPI memory allocation                                              T
 DBCSR| Use RMA algorithm                                                      F
 DBCSR| Use Communication thread                                               T
 DBCSR| Communication thread load                                             87


  **** **** ******  **  PROGRAM STARTED AT               2021-07-17 19:30:59.036
 ***** ** ***  *** **   PROGRAM STARTED ON                                 n1739
 **    ****   ******    PROGRAM STARTED BY                             ka_bh5670
 ***** **    ** ** **   PROGRAM PROCESS ID                               3743887
  **** **  *******  **  PROGRAM STARTED IN /tmp/ka_bh5670.3055275/bh5670/sim/123
                                           504

 CP2K| version string:                                          CP2K version 7.1
 CP2K| source code revision number:                                  git:e635599
 CP2K| cp2kflags: libint fftw3 libxc parallel mpi3 scalapack xsmm spglib        
 CP2K| is freely available from                            https://www.cp2k.org/
 CP2K| Program compiled at                          Do 6. Mai 20:02:55 CEST 2021
 CP2K| Program compiled on                                                 n1731
 CP2K| Program compiled for                                                local
 CP2K| Data directory path    /lustre/home/ka/ka_int/ka_bh5670/cp2k/cp2k-7.1/dat
 CP2K| Input file name                                                diag_2.inp

 GLOBAL| Force Environment number                                              1
 GLOBAL| Basis set file name                                 BASIS_CC_AUG_RI_NEW
 GLOBAL| Potential file name                                           POTENTIAL
 GLOBAL| MM Potential file name                                     MM_POTENTIAL
 GLOBAL| Coordinate file name                               dsgdb9nsd_123504.xyz
 GLOBAL| Method name                                                        CP2K
 GLOBAL| Project name                                                          2
 GLOBAL| Preferred FFT library                                             FFTW3
 GLOBAL| Preferred diagonalization lib.                                       SL
 GLOBAL| Run type                                                         ENERGY
 GLOBAL| All-to-all communication in single precision                          F
 GLOBAL| FFTs using library dependent lengths                                  T
 GLOBAL| Global print level                                                  LOW
 GLOBAL| MPI I/O enabled                                                       T
 GLOBAL| Total number of message passing processes                            32
 GLOBAL| Number of threads for this process                                    1
 GLOBAL| This output is from process                                           0
 GLOBAL| CPU model name                 Intel(R) Xeon(R) Gold 6252 CPU @ 2.10GHz
 GLOBAL| CPUID                                                              1003

 MEMORY| system memory details [Kb]
 MEMORY|                        rank 0           min           max       average
 MEMORY| MemTotal            394853576     394853576     394853576     394853576
 MEMORY| MemFree             380960436     380960436     380960436     380960436
 MEMORY| Buffers                     0             0             0             0
 MEMORY| Cached                6734608       6734608       6734612       6734608
 MEMORY| Slab                  2291172       2291172       2291172       2291172
 MEMORY| SReclaimable           545900        545900        545900        545900
 MEMORY| MemLikelyFree       388240944     388240944     388240948     388240944


 GENERATE|  Preliminary Number of Bonds generated:                             0
 GENERATE|  Achieved consistency in connectivity generation.

 *******************************************************************************
 *******************************************************************************
 **                                                                           **
 **     #####                         ##              ##                      **
 **    ##   ##            ##          ##              ##                      **
 **   ##     ##                       ##            ######                    **
 **   ##     ##  ##   ##  ##   #####  ##  ##   ####   ##    #####    #####    **
 **   ##     ##  ##   ##  ##  ##      ## ##   ##      ##   ##   ##  ##   ##   **
 **   ##  ## ##  ##   ##  ##  ##      ####     ###    ##   ######   ######    **
 **    ##  ###   ##   ##  ##  ##      ## ##      ##   ##   ##       ##        **
 **     #######   #####   ##   #####  ##  ##  ####    ##    #####   ##        **
 **           ##                                                    ##        **
 **                                                                           **
 **                                                ... make the atoms dance   **
 **                                                                           **
 **            Copyright (C) by CP2K developers group (2000 - 2019)           **
 **                                                                           **
 *******************************************************************************

 *** WARNING in qs_environment.F:1310 :: More added MOs requested than ***
 *** available. The full set of unoccupied MOs will be used.           ***



 TOTAL NUMBERS AND MAXIMUM NUMBERS

  Total number of            - Atomic kinds:                                   3
                             - Atoms:                                         11
                             - Shell sets:                                    62
                             - Shells:                                        91
                             - Primitive Cartesian functions:                167
                             - Cartesian basis functions:                    243
                             - Spherical basis functions:                    225

  Maximum angular momentum of the orbital basis functions:                     2


 SCF PARAMETERS         Density guess:                                   RESTART
                        --------------------------------------------------------
                        max_scf:                                             400
                        max_scf_history:                                       0
                        max_diis:                                              4
                        --------------------------------------------------------
                        eps_scf:                                        1.00E-06
                        eps_scf_history:                                0.00E+00
                        eps_diis:                                       1.00E-01
                        eps_eigval:                                     1.00E-05
                        --------------------------------------------------------
                        level_shift [a.u.]:                                 0.00
                        added MOs                                       194    0
                        --------------------------------------------------------
                        Mixing method:                            BROYDEN_MIXING
                                                charge density mixing in g-space
                        --------------------------------------------------------
                        No outer SCF
 
 RI-RPA| using GPW style
 

 Number of electrons:                                                         62
 Number of occupied orbitals:                                                 31
 Number of molecular orbitals:                                               225

 Number of orbital functions:                                                225
 Number of independent orbital functions:                                    225

 Extrapolation method: initial_guess


 SCF WAVEFUNCTION OPTIMIZATION

  Step     Update method      Time    Convergence         Total energy    Change
  ------------------------------------------------------------------------------
     1 NoMix/Diag. 0.20E+00    0.6     0.00000150      -443.4988150203 -4.43E+02
     2 Broy./Diag. 0.20E+00    0.7     0.00000028      -443.4988099463  5.07E-06

  *** SCF run converged in     2 steps ***


  Electronic density on regular grids:        -45.2338483222       16.7661516778
  Core density on regular grids:               62.0000000000       -0.0000000000
  Hard and soft densities (Lebedev):         -289.5949788834     -272.8288268576
  Total Rho_soft + Rho1_hard - Rho1_soft      -62.0000003480
  Total charge density (r-space):              -0.0000003480
  Total Rho_soft + Rho0_soft (g-space):        -0.0000004187

  Overlap energy of the core charge distribution:               0.00000577460837
  Self energy of the core charge distribution:               -376.95664823400000
  Core Hamiltonian energy:                                    -65.31661739378903
  Hartree energy:                                             135.43340467878346
  Exchange-correlation energy:                                -21.95405554681403

  GAPW| Exc from hard and soft atomic rho1:                   -35.93987901063237
  GAPW| local Eh = 1 center integrals:                        -78.76502021440797

  Total energy:                                              -443.49880994625153
  
  Eigenvalues of the occupied subspace spin            1
 ---------------------------------------------
     -14.16180217     -14.13685541     -14.09082480     -14.08870471
     -14.07464148     -14.06432607     -10.01559908     -10.01165154
      -9.95844690      -1.09658675      -1.01555993      -0.92781581
      -0.87449157      -0.77753814      -0.72425347      -0.67087762
      -0.61818143      -0.58291155      -0.52396349      -0.50698866
      -0.47244299      -0.44344686      -0.41607485      -0.38617935
      -0.35778029      -0.33788995      -0.32391081      -0.31833890
      -0.26266611      -0.26255661      -0.24957602
 Fermi Energy [eV] :   -6.791309
  
  Lowest eigenvalues of the unoccupied subspace spin            1
 ---------------------------------------------
      -0.16322643      -0.10579090      -0.04498279      -0.01868067
       0.00162331       0.01265885       0.01612804       0.02684045
       0.02738056       0.04322504


 RI-RPA section
 --------------

  Used number of processes per group:                                          1
  Maximum allowed memory usage per MPI processes:                    4000.00 MiB
  GPW_INFO| Density cutoff [a.u.]:                                         150.0
  GPW_INFO| Relative density cutoff [a.u.]:                                 25.0
  RI_INFO| Cholesky decomposition group size:                                  4
  RI_INFO| Number of groups for auxiliary basis functions                     32
  RI_INFO| Occupied  basis set size:                                          31
  RI_INFO| Virtual   basis set size:                                         194
  RI_INFO| Auxiliary basis set size:                                         694
  RI_INFO| Total memory for (ia|K) integrals:                          31.84 MiB
  RI_INFO| Total memory for G0W0-(nm|K) integrals:                     47.65 MiB
  RI_INFO| Minimum required memory per MPI process:                     2.02 MiB
  RI_INFO| Available memory per MPI process:                         3712.00 MiB
  RI_INFO| Group size for frequency integration:                              16
  INTEG_INFO| Clenshaw-Curtius quadrature
  INTEG_INFO| Number of integration points:                                   50
  INTEG_INFO| Number of integration points per RPA group:                     25
  MATRIX_INFO| Number row processes:                                           8
  MATRIX_INFO| Number column processes:                                        2
  MATRIX_INFO| Row block size:                                               375
  MATRIX_INFO| Column block size:                                            173
  INTEG_INFO| Scaling parameter:                                         0.20000
  PERFORMANCE| PDGEMM flop rate (Gflops / MPI rank):                       14.17
  
  GW quasiparticle energies
  -------------------------
   
  The GW quasiparticle energies are calculated according to: 
  E_GW = E_SCF + Z * ( Sigc(E_SCF) + Sigx - vxc )
   
  The energy unit of the following table is eV.  Sigc_fit is a very conservative
  estimate of the statistical error of the fitting.
   
            MO      E_SCF       Sigc   Sigc_fit   Sigx-vxc          Z       E_GW
    12 ( occ )    -25.247      7.335      0.000    -10.142      1.000    -28.055
    13 ( occ )    -23.796      7.079      0.000     -9.622      1.000    -26.339
    14 ( occ )    -21.158      6.323      0.000     -8.860      1.000    -23.694
    15 ( occ )    -19.708      5.768      0.000     -8.063      1.000    -22.003
    16 ( occ )    -18.256      4.630      0.000     -7.359      1.000    -20.985
    17 ( occ )    -16.822      4.214      0.000     -6.900      1.000    -19.507
    18 ( occ )    -15.862      3.485      0.000     -6.186      1.000    -18.563
    19 ( occ )    -14.258      3.220      0.000     -6.004      1.000    -17.042
    20 ( occ )    -13.796      3.497      0.000     -5.683      1.000    -15.981
    21 ( occ )    -12.856      3.254      0.000     -6.023      1.000    -15.625
    22 ( occ )    -12.067      2.527      0.000     -5.487      1.000    -15.027
    23 ( occ )    -11.322      3.108      0.000     -4.600      1.000    -12.814
    24 ( occ )    -10.508      1.986      0.000     -3.870      1.000    -12.392
    25 ( occ )     -9.736      3.419      0.000     -5.817      1.000    -12.134
    26 ( occ )     -9.194      3.435      0.000     -5.857      1.000    -11.617
    27 ( occ )     -8.814      3.316      0.000     -5.728      1.000    -11.226
    28 ( occ )     -8.662      0.951      0.000     -2.949      1.000    -10.660
    29 ( occ )     -7.148      2.850      0.000     -5.246      1.000     -9.543
    30 ( occ )     -7.145      0.421      0.000     -2.464      1.000     -9.187
    31 ( occ )     -6.791      2.442      0.000     -4.948      1.000     -9.297
    32 ( vir )     -4.442     -2.366      0.000      5.137      1.000     -1.671
    33 ( vir )     -2.879     -2.463      0.000      5.294      1.000     -0.048
    34 ( vir )     -1.224     -3.605      0.000      6.035      1.000      1.207
    35 ( vir )     -0.508     -0.847      0.000      2.213      1.000      0.858
    36 ( vir )      0.044     -0.734      0.000      2.000      1.000      1.311
    37 ( vir )      0.344     -1.045      0.000      2.633      1.000      1.933
    38 ( vir )      0.439     -4.055      0.000      6.025      1.000      2.409
    39 ( vir )      0.730     -1.209      0.000      2.518      1.000      2.039
    40 ( vir )      0.745     -0.896      0.000      2.342      1.000      2.191
    41 ( vir )      1.176     -0.865      0.000      2.272      1.000      2.583
    42 ( vir )      1.520     -1.004      0.000      2.524      1.000      3.040
    43 ( vir )      1.781     -1.210      0.000      2.581      1.000      3.153
    44 ( vir )      2.015     -1.274      0.000      3.010      1.000      3.751
    45 ( vir )      2.184     -0.970      0.000      2.446      1.000      3.660
    46 ( vir )      2.357     -1.113      0.000      2.557      1.000      3.801
    47 ( vir )      2.358     -1.028      0.000      2.529      1.000      3.858
    48 ( vir )      2.495     -0.696      0.000      1.693      1.000      3.492
    49 ( vir )      2.668     -3.104      0.000      5.816      1.000      5.380
    50 ( vir )      2.723     -0.762      0.000      1.890      1.000      3.851
    51 ( vir )      2.926     -0.712      0.000      1.964      1.000      4.178
   
  GW HOMO-LUMO gap (eV)                                                     7.63
  
  PERFORMANCE| PDGEMM flop rate (Gflops / MPI rank):                       20.50
  
  GW quasiparticle energies
  -------------------------
   
  The GW quasiparticle energies are calculated according to: 
  E_GW = E_SCF + Z * ( Sigc(E_SCF) + Sigx - vxc )
   
  The energy unit of the following table is eV.  Sigc_fit is a very conservative
  estimate of the statistical error of the fitting.
   
            MO      E_SCF       Sigc   Sigc_fit   Sigx-vxc          Z       E_GW
    12 ( occ )    -28.055      5.404      0.000    -10.142      1.000    -29.986
    13 ( occ )    -26.339      5.823      0.000     -9.622      1.000    -27.595
    14 ( occ )    -23.694      5.299      0.000     -8.860      1.000    -24.719
    15 ( occ )    -22.003      4.652      0.000     -8.063      1.000    -23.119
    16 ( occ )    -20.985      3.706      0.000     -7.359      1.000    -21.909
    17 ( occ )    -19.507      3.323      0.000     -6.900      1.000    -20.398
    18 ( occ )    -18.563      2.772      0.000     -6.186      1.000    -19.276
    19 ( occ )    -17.042      2.395      0.000     -6.004      1.000    -17.866
    20 ( occ )    -15.981      2.706      0.000     -5.683      1.000    -16.773
    21 ( occ )    -15.625      2.189      0.000     -6.023      1.000    -16.690
    22 ( occ )    -15.027      1.785      0.000     -5.487      1.000    -15.769
    23 ( occ )    -12.814      1.732      0.000     -4.600      1.000    -14.191
    24 ( occ )    -12.392      1.090      0.000     -3.870      1.000    -13.288
    25 ( occ )    -12.134      2.381      0.000     -5.817      1.000    -13.173
    26 ( occ )    -11.617      2.373      0.000     -5.857      1.000    -12.679
    27 ( occ )    -11.226      2.325      0.000     -5.728      1.000    -12.217
    28 ( occ )    -10.660      0.517      0.000     -2.949      1.000    -11.094
    29 ( occ )     -9.543      1.993      0.000     -5.246      1.000    -10.401
    30 ( occ )     -9.187      0.080      0.000     -2.464      1.000     -9.528
    31 ( occ )     -9.297      1.734      0.000     -4.948      1.000    -10.005
    32 ( vir )     -1.671     -1.825      0.000      5.137      1.000     -1.130
    33 ( vir )     -0.048     -1.995      0.000      5.294      1.000      0.421
    34 ( vir )      1.207     -2.589      0.000      6.035      1.000      2.223
    35 ( vir )      0.858     -0.694      0.000      2.213      1.000      1.010
    36 ( vir )      1.311     -0.580      0.000      2.000      1.000      1.465
    37 ( vir )      1.933     -0.858      0.000      2.633      1.000      2.119
    38 ( vir )      2.409     -2.790      0.000      6.025      1.000      3.674
    39 ( vir )      2.039     -0.881      0.000      2.518      1.000      2.367
    40 ( vir )      2.191     -0.725      0.000      2.342      1.000      2.363
    41 ( vir )      2.583     -0.686      0.000      2.272      1.000      2.762
    42 ( vir )      3.040     -0.807      0.000      2.524      1.000      3.238
    43 ( vir )      3.153     -0.895      0.000      2.581      1.000      3.467
    44 ( vir )      3.751     -1.036      0.000      3.010      1.000      3.989
    45 ( vir )      3.660     -0.765      0.000      2.446      1.000      3.864
    46 ( vir )      3.801     -0.839      0.000      2.557      1.000      4.075
    47 ( vir )      3.858     -0.810      0.000      2.529      1.000      4.077
    48 ( vir )      3.492     -0.553      0.000      1.693      1.000      3.634
    49 ( vir )      5.380     -2.565      0.000      5.816      1.000      5.919
    50 ( vir )      3.851     -0.616      0.000      1.890      1.000      3.997
    51 ( vir )      4.178     -0.552      0.000      1.964      1.000      4.338
   
  GW HOMO-LUMO gap (eV)                                                     8.87
  
  PERFORMANCE| PDGEMM flop rate (Gflops / MPI rank):                       23.93
  
  GW quasiparticle energies
  -------------------------
   
  The GW quasiparticle energies are calculated according to: 
  E_GW = E_SCF + Z * ( Sigc(E_SCF) + Sigx - vxc )
   
  The energy unit of the following table is eV.  Sigc_fit is a very conservative
  estimate of the statistical error of the fitting.
   
            MO      E_SCF       Sigc   Sigc_fit   Sigx-vxc          Z       E_GW
    12 ( occ )    -29.986      4.665      0.000    -10.142      1.000    -30.725
    13 ( occ )    -27.595      4.826      0.000     -9.622      1.000    -28.592
    14 ( occ )    -24.719      3.110      0.000     -8.860      1.000    -26.907
    15 ( occ )    -23.119      3.639      0.000     -8.063      1.000    -24.132
    16 ( occ )    -21.909      2.716      0.000     -7.359      1.000    -22.899
    17 ( occ )    -20.398      2.399      0.000     -6.900      1.000    -21.322
    18 ( occ )    -19.276      2.536      0.000     -6.186      1.000    -19.512
    19 ( occ )    -17.866      2.271      0.000     -6.004      1.000    -17.991
    20 ( occ )    -16.773      1.801      0.000     -5.683      1.000    -17.678
    21 ( occ )    -16.690      2.012      0.000     -6.023      1.000    -16.867
    22 ( occ )    -15.769      1.614      0.000     -5.487      1.000    -15.940
    23 ( occ )    -14.191      1.533      0.000     -4.600      1.000    -14.389
    24 ( occ )    -13.288      0.944      0.000     -3.870      1.000    -13.434
    25 ( occ )    -13.173      2.174      0.000     -5.817      1.000    -13.379
    26 ( occ )    -12.679      2.171      0.000     -5.857      1.000    -12.880
    27 ( occ )    -12.217      2.132      0.000     -5.728      1.000    -12.410
    28 ( occ )    -11.094      0.435      0.000     -2.949      1.000    -11.176
    29 ( occ )    -10.401      1.842      0.000     -5.246      1.000    -10.552
    30 ( occ )     -9.528      0.157      0.000     -2.464      1.000     -9.451
    31 ( occ )    -10.005      1.592      0.000     -4.948      1.000    -10.147
    32 ( vir )     -1.130     -1.766      0.000      5.137      1.000     -1.070
    33 ( vir )      0.421     -1.919      0.000      5.294      1.000      0.496
    34 ( vir )      2.223     -2.467      0.000      6.035      1.000      2.344
    35 ( vir )      1.010     -0.669      0.000      2.213      1.000      1.036
    36 ( vir )      1.465     -0.558      0.000      2.000      1.000      1.487
    37 ( vir )      2.119     -0.828      0.000      2.633      1.000      2.149
    38 ( vir )      3.674     -2.642      0.000      6.025      1.000      3.823
    39 ( vir )      2.367     -0.843      0.000      2.518      1.000      2.405
    40 ( vir )      2.363     -0.699      0.000      2.342      1.000      2.388
    41 ( vir )      2.762     -0.660      0.000      2.272      1.000      2.788
    42 ( vir )      3.238     -0.776      0.000      2.524      1.000      3.268
    43 ( vir )      3.467     -0.853      0.000      2.581      1.000      3.509
    44 ( vir )      3.989     -0.999      0.000      3.010      1.000      4.026
    45 ( vir )      3.864     -0.736      0.000      2.446      1.000      3.894
    46 ( vir )      4.075     -0.801      0.000      2.557      1.000      4.113
    47 ( vir )      4.077     -0.778      0.000      2.529      1.000      4.108
    48 ( vir )      3.634     -0.533      0.000      1.693      1.000      3.655
    49 ( vir )      5.919     -2.480      0.000      5.816      1.000      6.004
    50 ( vir )      3.997     -0.595      0.000      1.890      1.000      4.019
    51 ( vir )      4.338     -0.527      0.000      1.964      1.000      4.363
   
  GW HOMO-LUMO gap (eV)                                                     9.08
  
  PERFORMANCE| PDGEMM flop rate (Gflops / MPI rank):                       25.94
  
  GW quasiparticle energies
  -------------------------
   
  The GW quasiparticle energies are calculated according to: 
  E_GW = E_SCF + Z * ( Sigc(E_SCF) + Sigx - vxc )
   
  The energy unit of the following table is eV.  Sigc_fit is a very conservative
  estimate of the statistical error of the fitting.
   
            MO      E_SCF       Sigc   Sigc_fit   Sigx-vxc          Z       E_GW
    12 ( occ )    -30.725      5.378      0.000    -10.142      1.000    -30.012
    13 ( occ )    -28.592      5.355      0.000     -9.622      1.000    -28.063
    14 ( occ )    -26.907      4.582      0.000     -8.860      1.000    -25.435
    15 ( occ )    -24.132      3.960      0.000     -8.063      1.000    -23.811
    16 ( occ )    -22.899      3.026      0.000     -7.359      1.000    -22.588
    17 ( occ )    -21.322      2.721      0.000     -6.900      1.000    -21.001
    18 ( occ )    -19.512      2.381      0.000     -6.186      1.000    -19.667
    19 ( occ )    -17.991      2.024      0.000     -6.004      1.000    -18.238
    20 ( occ )    -17.678      1.810      0.000     -5.683      1.000    -17.669
    21 ( occ )    -16.867      1.860      0.000     -6.023      1.000    -17.019
    22 ( occ )    -15.940      1.523      0.000     -5.487      1.000    -16.032
    23 ( occ )    -14.389      0.732      0.000     -4.600      1.000    -15.190
    24 ( occ )    -13.434      0.236      0.000     -3.870      1.000    -14.142
    25 ( occ )    -13.379      2.102      0.000     -5.817      1.000    -13.451
    26 ( occ )    -12.880      2.055      0.000     -5.857      1.000    -12.996
    27 ( occ )    -12.410      1.999      0.000     -5.728      1.000    -12.544
    28 ( occ )    -11.176      0.128      0.000     -2.949      1.000    -11.483
    29 ( occ )    -10.552      1.660      0.000     -5.246      1.000    -10.734
    30 ( occ )     -9.451     -1.537      0.000     -2.464      1.000    -11.145
    31 ( occ )    -10.147      1.489      0.000     -4.948      1.000    -10.250
    32 ( vir )     -1.070     -1.762      0.000      5.137      1.000     -1.066
    33 ( vir )      0.496     -1.912      0.000      5.294      1.000      0.504
    34 ( vir )      2.344     -2.454      0.000      6.035      1.000      2.357
    35 ( vir )      1.036     -0.665      0.000      2.213      1.000      1.039
    36 ( vir )      1.487     -0.555      0.000      2.000      1.000      1.490
    37 ( vir )      2.149     -0.824      0.000      2.633      1.000      2.154
    38 ( vir )      3.823     -2.624      0.000      6.025      1.000      3.840
    39 ( vir )      2.405     -0.838      0.000      2.518      1.000      2.411
    40 ( vir )      2.388     -0.696      0.000      2.342      1.000      2.392
    41 ( vir )      2.788     -0.657      0.000      2.272      1.000      2.791
    42 ( vir )      3.268     -0.772      0.000      2.524      1.000      3.272
    43 ( vir )      3.509     -0.848      0.000      2.581      1.000      3.515
    44 ( vir )      4.026     -0.994      0.000      3.010      1.000      4.031
    45 ( vir )      3.894     -0.732      0.000      2.446      1.000      3.898
    46 ( vir )      4.113     -0.795      0.000      2.557      1.000      4.119
    47 ( vir )      4.108     -0.774      0.000      2.529      1.000      4.113
    48 ( vir )      3.655     -0.530      0.000      1.693      1.000      3.657
    49 ( vir )      6.004     -2.468      0.000      5.816      1.000      6.016
    50 ( vir )      4.019     -0.592      0.000      1.890      1.000      4.022
    51 ( vir )      4.363     -0.523      0.000      1.964      1.000      4.367
   
  GW HOMO-LUMO gap (eV)                                                     9.18
  
  PERFORMANCE| PDGEMM flop rate (Gflops / MPI rank):                       27.11
  
  GW quasiparticle energies
  -------------------------
   
  The GW quasiparticle energies are calculated according to: 
  E_GW = E_SCF + Z * ( Sigc(E_SCF) + Sigx - vxc )
   
  The energy unit of the following table is eV.  Sigc_fit is a very conservative
  estimate of the statistical error of the fitting.
   
            MO      E_SCF       Sigc   Sigc_fit   Sigx-vxc          Z       E_GW
    12 ( occ )    -30.012      5.900      0.000    -10.142      1.000    -29.489
    13 ( occ )    -28.063      5.574      0.000     -9.622      1.000    -27.844
    14 ( occ )    -25.435      4.502      0.000     -8.860      1.000    -25.515
    15 ( occ )    -23.811      3.976      0.000     -8.063      1.000    -23.795
    16 ( occ )    -22.588      3.169      0.000     -7.359      1.000    -22.445
    17 ( occ )    -21.001      2.842      0.000     -6.900      1.000    -20.879
    18 ( occ )    -19.667      2.376      0.000     -6.186      1.000    -19.672
    19 ( occ )    -18.238      2.058      0.000     -6.004      1.000    -18.204
    20 ( occ )    -17.669      2.218      0.000     -5.683      1.000    -17.260
    21 ( occ )    -17.019      1.874      0.000     -6.023      1.000    -17.005
    22 ( occ )    -16.032      1.522      0.000     -5.487      1.000    -16.032
    23 ( occ )    -15.190      1.385      0.000     -4.600      1.000    -14.538
    24 ( occ )    -14.142      0.814      0.000     -3.870      1.000    -13.565
    25 ( occ )    -13.451      2.090      0.000     -5.817      1.000    -13.463
    26 ( occ )    -12.996      2.079      0.000     -5.857      1.000    -12.973
    27 ( occ )    -12.544      2.041      0.000     -5.728      1.000    -12.501
    28 ( occ )    -11.483      0.340      0.000     -2.949      1.000    -11.271
    29 ( occ )    -10.734      1.755      0.000     -5.246      1.000    -10.639
    30 ( occ )    -11.145     -0.066      0.000     -2.464      1.000     -9.674
    31 ( occ )    -10.250      1.522      0.000     -4.948      1.000    -10.217
    32 ( vir )     -1.066     -1.762      0.000      5.137      1.000     -1.066
    33 ( vir )      0.504     -1.912      0.000      5.294      1.000      0.503
    34 ( vir )      2.357     -2.432      0.000      6.035      1.000      2.380
    35 ( vir )      1.039     -0.657      0.000      2.213      1.000      1.048
    36 ( vir )      1.490     -0.546      0.000      2.000      1.000      1.499
    37 ( vir )      2.154     -0.814      0.000      2.633      1.000      2.164
    38 ( vir )      3.840     -2.590      0.000      6.025      1.000      3.874
    39 ( vir )      2.411     -0.827      0.000      2.518      1.000      2.422
    40 ( vir )      2.392     -0.688      0.000      2.342      1.000      2.400
    41 ( vir )      2.791     -0.649      0.000      2.272      1.000      2.799
    42 ( vir )      3.272     -0.763      0.000      2.524      1.000      3.281
    43 ( vir )      3.515     -0.835      0.000      2.581      1.000      3.528
    44 ( vir )      4.031     -0.983      0.000      3.010      1.000      4.042
    45 ( vir )      3.898     -0.723      0.000      2.446      1.000      3.907
    46 ( vir )      4.119     -0.785      0.000      2.557      1.000      4.129
    47 ( vir )      4.113     -0.764      0.000      2.529      1.000      4.123
    48 ( vir )      3.657     -0.523      0.000      1.693      1.000      3.665
    49 ( vir )      6.016     -2.447      0.000      5.816      1.000      6.037
    50 ( vir )      4.022     -0.584      0.000      1.890      1.000      4.030
    51 ( vir )      4.367     -0.515      0.000      1.964      1.000      4.374
   
  GW HOMO-LUMO gap (eV)                                                     9.15
  
  PERFORMANCE| PDGEMM flop rate (Gflops / MPI rank):                       27.69
  
  GW quasiparticle energies
  -------------------------
   
  The GW quasiparticle energies are calculated according to: 
  E_GW = E_SCF + Z * ( Sigc(E_SCF) + Sigx - vxc )
   
  The energy unit of the following table is eV.  Sigc_fit is a very conservative
  estimate of the statistical error of the fitting.
   
            MO      E_SCF       Sigc   Sigc_fit   Sigx-vxc          Z       E_GW
    12 ( occ )    -29.489    103.231      0.000    -10.142      1.000     67.841
    13 ( occ )    -27.844    -18.109      0.000     -9.622      1.000    -51.527
    14 ( occ )    -25.515    124.629      0.000     -8.860      1.000     94.611
    15 ( occ )    -23.795      3.006      0.000     -8.063      1.000    -24.765
    16 ( occ )    -22.445     52.390      0.000     -7.359      1.000     26.775
    17 ( occ )    -20.879     51.243      0.000     -6.900      1.000     27.522
    18 ( occ )    -19.672    -46.166      0.000     -6.186      1.000    -68.214
    19 ( occ )    -18.204     86.138      0.000     -6.004      1.000     65.876
    20 ( occ )    -17.260      4.923      0.000     -5.683      1.000    -14.555
    21 ( occ )    -17.005     86.700      0.000     -6.023      1.000     67.821
    22 ( occ )    -16.032      0.481      0.000     -5.487      1.000    -17.073
    23 ( occ )    -14.538      0.763      0.000     -4.600      1.000    -15.160
    24 ( occ )    -13.565     -0.940      0.000     -3.870      1.000    -15.318
    25 ( occ )    -13.463      2.673      0.000     -5.817      1.000    -12.880
    26 ( occ )    -12.973      4.061      0.000     -5.857      1.000    -10.991
    27 ( occ )    -12.501      4.702      0.000     -5.728      1.000     -9.840
    28 ( occ )    -11.271      5.226      0.000     -2.949      1.000     -6.385
    29 ( occ )    -10.639      5.045      0.000     -5.246      1.000     -7.349
    30 ( occ )     -9.674    403.228      0.000     -2.464      1.000    393.620
    31 ( occ )    -10.217      3.340      0.000     -4.948      1.000     -8.399
    32 ( vir )     -1.066     -1.758      0.000      5.137      1.000     -1.062
    33 ( vir )      0.503     -1.908      0.000      5.294      1.000      0.508
    34 ( vir )      2.380     -2.447      0.000      6.035      1.000      2.365
    35 ( vir )      1.048     -0.663      0.000      2.213      1.000      1.042
    36 ( vir )      1.499     -0.552      0.000      2.000      1.000      1.492
    37 ( vir )      2.164     -0.821      0.000      2.633      1.000      2.157
    38 ( vir )      3.874     -2.615      0.000      6.025      1.000      3.849
    39 ( vir )      2.422     -0.835      0.000      2.518      1.000      2.413
    40 ( vir )      2.400     -0.693      0.000      2.342      1.000      2.394
    41 ( vir )      2.799     -0.654      0.000      2.272      1.000      2.794
    42 ( vir )      3.281     -0.770      0.000      2.524      1.000      3.275
    43 ( vir )      3.528     -0.845      0.000      2.581      1.000      3.518
    44 ( vir )      4.042     -0.991      0.000      3.010      1.000      4.034
    45 ( vir )      3.907     -0.729      0.000      2.446      1.000      3.901
    46 ( vir )      4.129     -0.793      0.000      2.557      1.000      4.122
    47 ( vir )      4.123     -0.771      0.000      2.529      1.000      4.115
    48 ( vir )      3.665     -0.528      0.000      1.693      1.000      3.659
    49 ( vir )      6.037     -2.462      0.000      5.816      1.000      6.022
    50 ( vir )      4.030     -0.590      0.000      1.890      1.000      4.024
    51 ( vir )      4.374     -0.521      0.000      1.964      1.000      4.369
   
  GW HOMO-LUMO gap (eV)                                                     7.34
  
  PERFORMANCE| PDGEMM flop rate (Gflops / MPI rank):                       27.90
  
  GW quasiparticle energies
  -------------------------
   
  The GW quasiparticle energies are calculated according to: 
  E_GW = E_SCF + Z * ( Sigc(E_SCF) + Sigx - vxc )
   
  The energy unit of the following table is eV.  Sigc_fit is a very conservative
  estimate of the statistical error of the fitting.
   
            MO      E_SCF       Sigc   Sigc_fit   Sigx-vxc          Z       E_GW
    12 ( occ )     67.841        NaN      0.000    -10.142      1.000        NaN
    13 ( occ )    -51.527        NaN      0.000     -9.622      1.000        NaN
    14 ( occ )     94.611        NaN      0.000     -8.860      1.000        NaN
    15 ( occ )    -24.765        NaN      0.000     -8.063      1.000        NaN
    16 ( occ )     26.775        NaN      0.000     -7.359      1.000        NaN
    17 ( occ )     27.522        NaN      0.000     -6.900      1.000        NaN
    18 ( occ )    -68.214        NaN      0.000     -6.186      1.000        NaN
    19 ( occ )     65.876        NaN      0.000     -6.004      1.000        NaN
    20 ( occ )    -14.555        NaN      0.000     -5.683      1.000        NaN
    21 ( occ )     67.821        NaN      0.000     -6.023      1.000        NaN
    22 ( occ )    -17.073        NaN      0.000     -5.487      1.000        NaN
    23 ( occ )    -15.160        NaN      0.000     -4.600      1.000        NaN
    24 ( occ )    -15.318        NaN      0.000     -3.870      1.000        NaN
    25 ( occ )    -12.880        NaN      0.000     -5.817      1.000        NaN
    26 ( occ )    -10.991        NaN      0.000     -5.857      1.000        NaN
    27 ( occ )     -9.840        NaN      0.000     -5.728      1.000        NaN
    28 ( occ )     -6.385        NaN      0.000     -2.949      1.000        NaN
    29 ( occ )     -7.349        NaN      0.000     -5.246      1.000        NaN
    30 ( occ )    393.620        NaN      0.000     -2.464      1.000        NaN
    31 ( occ )     -8.399        NaN      0.000     -4.948      1.000        NaN
    32 ( vir )     -1.062        NaN      0.000      5.137      1.000        NaN
    33 ( vir )      0.508        NaN      0.000      5.294      1.000        NaN
    34 ( vir )      2.365        NaN      0.000      6.035      1.000        NaN
    35 ( vir )      1.042        NaN      0.000      2.213      1.000        NaN
    36 ( vir )      1.492        NaN      0.000      2.000      1.000        NaN
    37 ( vir )      2.157        NaN      0.000      2.633      1.000        NaN
    38 ( vir )      3.849        NaN      0.000      6.025      1.000        NaN
    39 ( vir )      2.413        NaN      0.000      2.518      1.000        NaN
    40 ( vir )      2.394        NaN      0.000      2.342      1.000        NaN
    41 ( vir )      2.794        NaN      0.000      2.272      1.000        NaN
    42 ( vir )      3.275        NaN      0.000      2.524      1.000        NaN
    43 ( vir )      3.518        NaN      0.000      2.581      1.000        NaN
    44 ( vir )      4.034        NaN      0.000      3.010      1.000        NaN
    45 ( vir )      3.901        NaN      0.000      2.446      1.000        NaN
    46 ( vir )      4.122        NaN      0.000      2.557      1.000        NaN
    47 ( vir )      4.115        NaN      0.000      2.529      1.000        NaN
    48 ( vir )      3.659        NaN      0.000      1.693      1.000        NaN
    49 ( vir )      6.022        NaN      0.000      5.816      1.000        NaN
    50 ( vir )      4.024        NaN      0.000      1.890      1.000        NaN
    51 ( vir )      4.369        NaN      0.000      1.964      1.000        NaN
   
  GW HOMO-LUMO gap (eV)                                                      NaN
  
  PERFORMANCE| PDGEMM flop rate (Gflops / MPI rank):                       27.95
  
  GW quasiparticle energies
  -------------------------
   
  The GW quasiparticle energies are calculated according to: 
  E_GW = E_SCF + Z * ( Sigc(E_SCF) + Sigx - vxc )
   
  The energy unit of the following table is eV.  Sigc_fit is a very conservative
  estimate of the statistical error of the fitting.
   
            MO      E_SCF       Sigc   Sigc_fit   Sigx-vxc          Z       E_GW
    12 ( occ )        NaN        NaN      0.000    -10.142      1.000        NaN
    13 ( occ )        NaN        NaN      0.000     -9.622      1.000        NaN
    14 ( occ )        NaN        NaN      0.000     -8.860      1.000        NaN
    15 ( occ )        NaN        NaN      0.000     -8.063      1.000        NaN
    16 ( occ )        NaN        NaN      0.000     -7.359      1.000        NaN
    17 ( occ )        NaN        NaN      0.000     -6.900      1.000        NaN
    18 ( occ )        NaN        NaN      0.000     -6.186      1.000        NaN
    19 ( occ )        NaN        NaN      0.000     -6.004      1.000        NaN
    20 ( occ )        NaN        NaN      0.000     -5.683      1.000        NaN
    21 ( occ )        NaN        NaN      0.000     -6.023      1.000        NaN
    22 ( occ )        NaN        NaN      0.000     -5.487      1.000        NaN
    23 ( occ )        NaN        NaN      0.000     -4.600      1.000        NaN
    24 ( occ )        NaN        NaN      0.000     -3.870      1.000        NaN
    25 ( occ )        NaN        NaN      0.000     -5.817      1.000        NaN
    26 ( occ )        NaN        NaN      0.000     -5.857      1.000        NaN
    27 ( occ )        NaN        NaN      0.000     -5.728      1.000        NaN
    28 ( occ )        NaN        NaN      0.000     -2.949      1.000        NaN
    29 ( occ )        NaN        NaN      0.000     -5.246      1.000        NaN
    30 ( occ )        NaN        NaN      0.000     -2.464      1.000        NaN
    31 ( occ )        NaN        NaN      0.000     -4.948      1.000        NaN
    32 ( vir )        NaN        NaN      0.000      5.137      1.000        NaN
    33 ( vir )        NaN        NaN      0.000      5.294      1.000        NaN
    34 ( vir )        NaN        NaN      0.000      6.035      1.000        NaN
    35 ( vir )        NaN        NaN      0.000      2.213      1.000        NaN
    36 ( vir )        NaN        NaN      0.000      2.000      1.000        NaN
    37 ( vir )        NaN        NaN      0.000      2.633      1.000        NaN
    38 ( vir )        NaN        NaN      0.000      6.025      1.000        NaN
    39 ( vir )        NaN        NaN      0.000      2.518      1.000        NaN
    40 ( vir )        NaN        NaN      0.000      2.342      1.000        NaN
    41 ( vir )        NaN        NaN      0.000      2.272      1.000        NaN
    42 ( vir )        NaN        NaN      0.000      2.524      1.000        NaN
    43 ( vir )        NaN        NaN      0.000      2.581      1.000        NaN
    44 ( vir )        NaN        NaN      0.000      3.010      1.000        NaN
    45 ( vir )        NaN        NaN      0.000      2.446      1.000        NaN
    46 ( vir )        NaN        NaN      0.000      2.557      1.000        NaN
    47 ( vir )        NaN        NaN      0.000      2.529      1.000        NaN
    48 ( vir )        NaN        NaN      0.000      1.693      1.000        NaN
    49 ( vir )        NaN        NaN      0.000      5.816      1.000        NaN
    50 ( vir )        NaN        NaN      0.000      1.890      1.000        NaN
    51 ( vir )        NaN        NaN      0.000      1.964      1.000        NaN
   
  GW HOMO-LUMO gap (eV)                                                      NaN
  
  PERFORMANCE| PDGEMM flop rate (Gflops / MPI rank):                       27.84
  
  GW quasiparticle energies
  -------------------------
   
  The GW quasiparticle energies are calculated according to: 
  E_GW = E_SCF + Z * ( Sigc(E_SCF) + Sigx - vxc )
   
  The energy unit of the following table is eV.  Sigc_fit is a very conservative
  estimate of the statistical error of the fitting.
   
            MO      E_SCF       Sigc   Sigc_fit   Sigx-vxc          Z       E_GW
    12 ( occ )        NaN        NaN      0.000    -10.142      1.000        NaN
    13 ( occ )        NaN        NaN      0.000     -9.622      1.000        NaN
    14 ( occ )        NaN        NaN      0.000     -8.860      1.000        NaN
    15 ( occ )        NaN        NaN      0.000     -8.063      1.000        NaN
    16 ( occ )        NaN        NaN      0.000     -7.359      1.000        NaN
    17 ( occ )        NaN        NaN      0.000     -6.900      1.000        NaN
    18 ( occ )        NaN        NaN      0.000     -6.186      1.000        NaN
    19 ( occ )        NaN        NaN      0.000     -6.004      1.000        NaN
    20 ( occ )        NaN        NaN      0.000     -5.683      1.000        NaN
    21 ( occ )        NaN        NaN      0.000     -6.023      1.000        NaN
    22 ( occ )        NaN        NaN      0.000     -5.487      1.000        NaN
    23 ( occ )        NaN        NaN      0.000     -4.600      1.000        NaN
    24 ( occ )        NaN        NaN      0.000     -3.870      1.000        NaN
    25 ( occ )        NaN        NaN      0.000     -5.817      1.000        NaN
    26 ( occ )        NaN        NaN      0.000     -5.857      1.000        NaN
    27 ( occ )        NaN        NaN      0.000     -5.728      1.000        NaN
    28 ( occ )        NaN        NaN      0.000     -2.949      1.000        NaN
    29 ( occ )        NaN        NaN      0.000     -5.246      1.000        NaN
    30 ( occ )        NaN        NaN      0.000     -2.464      1.000        NaN
    31 ( occ )        NaN        NaN      0.000     -4.948      1.000        NaN
    32 ( vir )        NaN        NaN      0.000      5.137      1.000        NaN
    33 ( vir )        NaN        NaN      0.000      5.294      1.000        NaN
    34 ( vir )        NaN        NaN      0.000      6.035      1.000        NaN
    35 ( vir )        NaN        NaN      0.000      2.213      1.000        NaN
    36 ( vir )        NaN        NaN      0.000      2.000      1.000        NaN
    37 ( vir )        NaN        NaN      0.000      2.633      1.000        NaN
    38 ( vir )        NaN        NaN      0.000      6.025      1.000        NaN
    39 ( vir )        NaN        NaN      0.000      2.518      1.000        NaN
    40 ( vir )        NaN        NaN      0.000      2.342      1.000        NaN
    41 ( vir )        NaN        NaN      0.000      2.272      1.000        NaN
    42 ( vir )        NaN        NaN      0.000      2.524      1.000        NaN
    43 ( vir )        NaN        NaN      0.000      2.581      1.000        NaN
    44 ( vir )        NaN        NaN      0.000      3.010      1.000        NaN
    45 ( vir )        NaN        NaN      0.000      2.446      1.000        NaN
    46 ( vir )        NaN        NaN      0.000      2.557      1.000        NaN
    47 ( vir )        NaN        NaN      0.000      2.529      1.000        NaN
    48 ( vir )        NaN        NaN      0.000      1.693      1.000        NaN
    49 ( vir )        NaN        NaN      0.000      5.816      1.000        NaN
    50 ( vir )        NaN        NaN      0.000      1.890      1.000        NaN
    51 ( vir )        NaN        NaN      0.000      1.964      1.000        NaN
   
  GW HOMO-LUMO gap (eV)                                                      NaN
  
  PERFORMANCE| PDGEMM flop rate (Gflops / MPI rank):                       27.54
  
  GW quasiparticle energies
  -------------------------
   
  The GW quasiparticle energies are calculated according to: 
  E_GW = E_SCF + Z * ( Sigc(E_SCF) + Sigx - vxc )
   
  The energy unit of the following table is eV.  Sigc_fit is a very conservative
  estimate of the statistical error of the fitting.
   
            MO      E_SCF       Sigc   Sigc_fit   Sigx-vxc          Z       E_GW
    12 ( occ )        NaN        NaN      0.000    -10.142      1.000        NaN
    13 ( occ )        NaN        NaN      0.000     -9.622      1.000        NaN
    14 ( occ )        NaN        NaN      0.000     -8.860      1.000        NaN
    15 ( occ )        NaN        NaN      0.000     -8.063      1.000        NaN
    16 ( occ )        NaN        NaN      0.000     -7.359      1.000        NaN
    17 ( occ )        NaN        NaN      0.000     -6.900      1.000        NaN
    18 ( occ )        NaN        NaN      0.000     -6.186      1.000        NaN
    19 ( occ )        NaN        NaN      0.000     -6.004      1.000        NaN
    20 ( occ )        NaN        NaN      0.000     -5.683      1.000        NaN
    21 ( occ )        NaN        NaN      0.000     -6.023      1.000        NaN
    22 ( occ )        NaN        NaN      0.000     -5.487      1.000        NaN
    23 ( occ )        NaN        NaN      0.000     -4.600      1.000        NaN
    24 ( occ )        NaN        NaN      0.000     -3.870      1.000        NaN
    25 ( occ )        NaN        NaN      0.000     -5.817      1.000        NaN
    26 ( occ )        NaN        NaN      0.000     -5.857      1.000        NaN
    27 ( occ )        NaN        NaN      0.000     -5.728      1.000        NaN
    28 ( occ )        NaN        NaN      0.000     -2.949      1.000        NaN
    29 ( occ )        NaN        NaN      0.000     -5.246      1.000        NaN
    30 ( occ )        NaN        NaN      0.000     -2.464      1.000        NaN
    31 ( occ )        NaN        NaN      0.000     -4.948      1.000        NaN
    32 ( vir )        NaN        NaN      0.000      5.137      1.000        NaN
    33 ( vir )        NaN        NaN      0.000      5.294      1.000        NaN
    34 ( vir )        NaN        NaN      0.000      6.035      1.000        NaN
    35 ( vir )        NaN        NaN      0.000      2.213      1.000        NaN
    36 ( vir )        NaN        NaN      0.000      2.000      1.000        NaN
    37 ( vir )        NaN        NaN      0.000      2.633      1.000        NaN
    38 ( vir )        NaN        NaN      0.000      6.025      1.000        NaN
    39 ( vir )        NaN        NaN      0.000      2.518      1.000        NaN
    40 ( vir )        NaN        NaN      0.000      2.342      1.000        NaN
    41 ( vir )        NaN        NaN      0.000      2.272      1.000        NaN
    42 ( vir )        NaN        NaN      0.000      2.524      1.000        NaN
    43 ( vir )        NaN        NaN      0.000      2.581      1.000        NaN
    44 ( vir )        NaN        NaN      0.000      3.010      1.000        NaN
    45 ( vir )        NaN        NaN      0.000      2.446      1.000        NaN
    46 ( vir )        NaN        NaN      0.000      2.557      1.000        NaN
    47 ( vir )        NaN        NaN      0.000      2.529      1.000        NaN
    48 ( vir )        NaN        NaN      0.000      1.693      1.000        NaN
    49 ( vir )        NaN        NaN      0.000      5.816      1.000        NaN
    50 ( vir )        NaN        NaN      0.000      1.890      1.000        NaN
    51 ( vir )        NaN        NaN      0.000      1.964      1.000        NaN
   
  GW HOMO-LUMO gap (eV)                                                      NaN
  
  PERFORMANCE| PDGEMM flop rate (Gflops / MPI rank):                       27.13
  
  GW quasiparticle energies
  -------------------------
   
  The GW quasiparticle energies are calculated according to: 
  E_GW = E_SCF + Z * ( Sigc(E_SCF) + Sigx - vxc )
   
  The energy unit of the following table is eV.  Sigc_fit is a very conservative
  estimate of the statistical error of the fitting.
   
            MO      E_SCF       Sigc   Sigc_fit   Sigx-vxc          Z       E_GW
    12 ( occ )        NaN        NaN      0.000    -10.142      1.000        NaN
    13 ( occ )        NaN        NaN      0.000     -9.622      1.000        NaN
    14 ( occ )        NaN        NaN      0.000     -8.860      1.000        NaN
    15 ( occ )        NaN        NaN      0.000     -8.063      1.000        NaN
    16 ( occ )        NaN        NaN      0.000     -7.359      1.000        NaN
    17 ( occ )        NaN        NaN      0.000     -6.900      1.000        NaN
    18 ( occ )        NaN        NaN      0.000     -6.186      1.000        NaN
    19 ( occ )        NaN        NaN      0.000     -6.004      1.000        NaN
    20 ( occ )        NaN        NaN      0.000     -5.683      1.000        NaN
    21 ( occ )        NaN        NaN      0.000     -6.023      1.000        NaN
    22 ( occ )        NaN        NaN      0.000     -5.487      1.000        NaN
    23 ( occ )        NaN        NaN      0.000     -4.600      1.000        NaN
    24 ( occ )        NaN        NaN      0.000     -3.870      1.000        NaN
    25 ( occ )        NaN        NaN      0.000     -5.817      1.000        NaN
    26 ( occ )        NaN        NaN      0.000     -5.857      1.000        NaN
    27 ( occ )        NaN        NaN      0.000     -5.728      1.000        NaN
    28 ( occ )        NaN        NaN      0.000     -2.949      1.000        NaN
    29 ( occ )        NaN        NaN      0.000     -5.246      1.000        NaN
    30 ( occ )        NaN        NaN      0.000     -2.464      1.000        NaN
    31 ( occ )        NaN        NaN      0.000     -4.948      1.000        NaN
    32 ( vir )        NaN        NaN      0.000      5.137      1.000        NaN
    33 ( vir )        NaN        NaN      0.000      5.294      1.000        NaN
    34 ( vir )        NaN        NaN      0.000      6.035      1.000        NaN
    35 ( vir )        NaN        NaN      0.000      2.213      1.000        NaN
    36 ( vir )        NaN        NaN      0.000      2.000      1.000        NaN
    37 ( vir )        NaN        NaN      0.000      2.633      1.000        NaN
    38 ( vir )        NaN        NaN      0.000      6.025      1.000        NaN
    39 ( vir )        NaN        NaN      0.000      2.518      1.000        NaN
    40 ( vir )        NaN        NaN      0.000      2.342      1.000        NaN
    41 ( vir )        NaN        NaN      0.000      2.272      1.000        NaN
    42 ( vir )        NaN        NaN      0.000      2.524      1.000        NaN
    43 ( vir )        NaN        NaN      0.000      2.581      1.000        NaN
    44 ( vir )        NaN        NaN      0.000      3.010      1.000        NaN
    45 ( vir )        NaN        NaN      0.000      2.446      1.000        NaN
    46 ( vir )        NaN        NaN      0.000      2.557      1.000        NaN
    47 ( vir )        NaN        NaN      0.000      2.529      1.000        NaN
    48 ( vir )        NaN        NaN      0.000      1.693      1.000        NaN
    49 ( vir )        NaN        NaN      0.000      5.816      1.000        NaN
    50 ( vir )        NaN        NaN      0.000      1.890      1.000        NaN
    51 ( vir )        NaN        NaN      0.000      1.964      1.000        NaN
   
  GW HOMO-LUMO gap (eV)                                                      NaN
  
  PERFORMANCE| PDGEMM flop rate (Gflops / MPI rank):                       26.67
  
  GW quasiparticle energies
  -------------------------
   
  The GW quasiparticle energies are calculated according to: 
  E_GW = E_SCF + Z * ( Sigc(E_SCF) + Sigx - vxc )
   
  The energy unit of the following table is eV.  Sigc_fit is a very conservative
  estimate of the statistical error of the fitting.
   
            MO      E_SCF       Sigc   Sigc_fit   Sigx-vxc          Z       E_GW
    12 ( occ )        NaN        NaN      0.000    -10.142      1.000        NaN
    13 ( occ )        NaN        NaN      0.000     -9.622      1.000        NaN
    14 ( occ )        NaN        NaN      0.000     -8.860      1.000        NaN
    15 ( occ )        NaN        NaN      0.000     -8.063      1.000        NaN
    16 ( occ )        NaN        NaN      0.000     -7.359      1.000        NaN
    17 ( occ )        NaN        NaN      0.000     -6.900      1.000        NaN
    18 ( occ )        NaN        NaN      0.000     -6.186      1.000        NaN
    19 ( occ )        NaN        NaN      0.000     -6.004      1.000        NaN
    20 ( occ )        NaN        NaN      0.000     -5.683      1.000        NaN
    21 ( occ )        NaN        NaN      0.000     -6.023      1.000        NaN
    22 ( occ )        NaN        NaN      0.000     -5.487      1.000        NaN
    23 ( occ )        NaN        NaN      0.000     -4.600      1.000        NaN
    24 ( occ )        NaN        NaN      0.000     -3.870      1.000        NaN
    25 ( occ )        NaN        NaN      0.000     -5.817      1.000        NaN
    26 ( occ )        NaN        NaN      0.000     -5.857      1.000        NaN
    27 ( occ )        NaN        NaN      0.000     -5.728      1.000        NaN
    28 ( occ )        NaN        NaN      0.000     -2.949      1.000        NaN
    29 ( occ )        NaN        NaN      0.000     -5.246      1.000        NaN
    30 ( occ )        NaN        NaN      0.000     -2.464      1.000        NaN
    31 ( occ )        NaN        NaN      0.000     -4.948      1.000        NaN
    32 ( vir )        NaN        NaN      0.000      5.137      1.000        NaN
    33 ( vir )        NaN        NaN      0.000      5.294      1.000        NaN
    34 ( vir )        NaN        NaN      0.000      6.035      1.000        NaN
    35 ( vir )        NaN        NaN      0.000      2.213      1.000        NaN
    36 ( vir )        NaN        NaN      0.000      2.000      1.000        NaN
    37 ( vir )        NaN        NaN      0.000      2.633      1.000        NaN
    38 ( vir )        NaN        NaN      0.000      6.025      1.000        NaN
    39 ( vir )        NaN        NaN      0.000      2.518      1.000        NaN
    40 ( vir )        NaN        NaN      0.000      2.342      1.000        NaN
    41 ( vir )        NaN        NaN      0.000      2.272      1.000        NaN
    42 ( vir )        NaN        NaN      0.000      2.524      1.000        NaN
    43 ( vir )        NaN        NaN      0.000      2.581      1.000        NaN
    44 ( vir )        NaN        NaN      0.000      3.010      1.000        NaN
    45 ( vir )        NaN        NaN      0.000      2.446      1.000        NaN
    46 ( vir )        NaN        NaN      0.000      2.557      1.000        NaN
    47 ( vir )        NaN        NaN      0.000      2.529      1.000        NaN
    48 ( vir )        NaN        NaN      0.000      1.693      1.000        NaN
    49 ( vir )        NaN        NaN      0.000      5.816      1.000        NaN
    50 ( vir )        NaN        NaN      0.000      1.890      1.000        NaN
    51 ( vir )        NaN        NaN      0.000      1.964      1.000        NaN
   
  GW HOMO-LUMO gap (eV)                                                      NaN
  
  PERFORMANCE| PDGEMM flop rate (Gflops / MPI rank):                       26.08
  
  GW quasiparticle energies
  -------------------------
   
  The GW quasiparticle energies are calculated according to: 
  E_GW = E_SCF + Z * ( Sigc(E_SCF) + Sigx - vxc )
   
  The energy unit of the following table is eV.  Sigc_fit is a very conservative
  estimate of the statistical error of the fitting.
   
            MO      E_SCF       Sigc   Sigc_fit   Sigx-vxc          Z       E_GW
    12 ( occ )        NaN        NaN      0.000    -10.142      1.000        NaN
    13 ( occ )        NaN        NaN      0.000     -9.622      1.000        NaN
    14 ( occ )        NaN        NaN      0.000     -8.860      1.000        NaN
    15 ( occ )        NaN        NaN      0.000     -8.063      1.000        NaN
    16 ( occ )        NaN        NaN      0.000     -7.359      1.000        NaN
    17 ( occ )        NaN        NaN      0.000     -6.900      1.000        NaN
    18 ( occ )        NaN        NaN      0.000     -6.186      1.000        NaN
    19 ( occ )        NaN        NaN      0.000     -6.004      1.000        NaN
    20 ( occ )        NaN        NaN      0.000     -5.683      1.000        NaN
    21 ( occ )        NaN        NaN      0.000     -6.023      1.000        NaN
    22 ( occ )        NaN        NaN      0.000     -5.487      1.000        NaN
    23 ( occ )        NaN        NaN      0.000     -4.600      1.000        NaN
    24 ( occ )        NaN        NaN      0.000     -3.870      1.000        NaN
    25 ( occ )        NaN        NaN      0.000     -5.817      1.000        NaN
    26 ( occ )        NaN        NaN      0.000     -5.857      1.000        NaN
    27 ( occ )        NaN        NaN      0.000     -5.728      1.000        NaN
    28 ( occ )        NaN        NaN      0.000     -2.949      1.000        NaN
    29 ( occ )        NaN        NaN      0.000     -5.246      1.000        NaN
    30 ( occ )        NaN        NaN      0.000     -2.464      1.000        NaN
    31 ( occ )        NaN        NaN      0.000     -4.948      1.000        NaN
    32 ( vir )        NaN        NaN      0.000      5.137      1.000        NaN
    33 ( vir )        NaN        NaN      0.000      5.294      1.000        NaN
    34 ( vir )        NaN        NaN      0.000      6.035      1.000        NaN
    35 ( vir )        NaN        NaN      0.000      2.213      1.000        NaN
    36 ( vir )        NaN        NaN      0.000      2.000      1.000        NaN
    37 ( vir )        NaN        NaN      0.000      2.633      1.000        NaN
    38 ( vir )        NaN        NaN      0.000      6.025      1.000        NaN
    39 ( vir )        NaN        NaN      0.000      2.518      1.000        NaN
    40 ( vir )        NaN        NaN      0.000      2.342      1.000        NaN
    41 ( vir )        NaN        NaN      0.000      2.272      1.000        NaN
    42 ( vir )        NaN        NaN      0.000      2.524      1.000        NaN
    43 ( vir )        NaN        NaN      0.000      2.581      1.000        NaN
    44 ( vir )        NaN        NaN      0.000      3.010      1.000        NaN
    45 ( vir )        NaN        NaN      0.000      2.446      1.000        NaN
    46 ( vir )        NaN        NaN      0.000      2.557      1.000        NaN
    47 ( vir )        NaN        NaN      0.000      2.529      1.000        NaN
    48 ( vir )        NaN        NaN      0.000      1.693      1.000        NaN
    49 ( vir )        NaN        NaN      0.000      5.816      1.000        NaN
    50 ( vir )        NaN        NaN      0.000      1.890      1.000        NaN
    51 ( vir )        NaN        NaN      0.000      1.964      1.000        NaN
   
  GW HOMO-LUMO gap (eV)                                                      NaN
  
  PERFORMANCE| PDGEMM flop rate (Gflops / MPI rank):                       25.43
  
  GW quasiparticle energies
  -------------------------
   
  The GW quasiparticle energies are calculated according to: 
  E_GW = E_SCF + Z * ( Sigc(E_SCF) + Sigx - vxc )
   
  The energy unit of the following table is eV.  Sigc_fit is a very conservative
  estimate of the statistical error of the fitting.
   
            MO      E_SCF       Sigc   Sigc_fit   Sigx-vxc          Z       E_GW
    12 ( occ )        NaN        NaN      0.000    -10.142      1.000        NaN
    13 ( occ )        NaN        NaN      0.000     -9.622      1.000        NaN
    14 ( occ )        NaN        NaN      0.000     -8.860      1.000        NaN
    15 ( occ )        NaN        NaN      0.000     -8.063      1.000        NaN
    16 ( occ )        NaN        NaN      0.000     -7.359      1.000        NaN
    17 ( occ )        NaN        NaN      0.000     -6.900      1.000        NaN
    18 ( occ )        NaN        NaN      0.000     -6.186      1.000        NaN
    19 ( occ )        NaN        NaN      0.000     -6.004      1.000        NaN
    20 ( occ )        NaN        NaN      0.000     -5.683      1.000        NaN
    21 ( occ )        NaN        NaN      0.000     -6.023      1.000        NaN
    22 ( occ )        NaN        NaN      0.000     -5.487      1.000        NaN
    23 ( occ )        NaN        NaN      0.000     -4.600      1.000        NaN
    24 ( occ )        NaN        NaN      0.000     -3.870      1.000        NaN
    25 ( occ )        NaN        NaN      0.000     -5.817      1.000        NaN
    26 ( occ )        NaN        NaN      0.000     -5.857      1.000        NaN
    27 ( occ )        NaN        NaN      0.000     -5.728      1.000        NaN
    28 ( occ )        NaN        NaN      0.000     -2.949      1.000        NaN
    29 ( occ )        NaN        NaN      0.000     -5.246      1.000        NaN
    30 ( occ )        NaN        NaN      0.000     -2.464      1.000        NaN
    31 ( occ )        NaN        NaN      0.000     -4.948      1.000        NaN
    32 ( vir )        NaN        NaN      0.000      5.137      1.000        NaN
    33 ( vir )        NaN        NaN      0.000      5.294      1.000        NaN
    34 ( vir )        NaN        NaN      0.000      6.035      1.000        NaN
    35 ( vir )        NaN        NaN      0.000      2.213      1.000        NaN
    36 ( vir )        NaN        NaN      0.000      2.000      1.000        NaN
    37 ( vir )        NaN        NaN      0.000      2.633      1.000        NaN
    38 ( vir )        NaN        NaN      0.000      6.025      1.000        NaN
    39 ( vir )        NaN        NaN      0.000      2.518      1.000        NaN
    40 ( vir )        NaN        NaN      0.000      2.342      1.000        NaN
    41 ( vir )        NaN        NaN      0.000      2.272      1.000        NaN
    42 ( vir )        NaN        NaN      0.000      2.524      1.000        NaN
    43 ( vir )        NaN        NaN      0.000      2.581      1.000        NaN
    44 ( vir )        NaN        NaN      0.000      3.010      1.000        NaN
    45 ( vir )        NaN        NaN      0.000      2.446      1.000        NaN
    46 ( vir )        NaN        NaN      0.000      2.557      1.000        NaN
    47 ( vir )        NaN        NaN      0.000      2.529      1.000        NaN
    48 ( vir )        NaN        NaN      0.000      1.693      1.000        NaN
    49 ( vir )        NaN        NaN      0.000      5.816      1.000        NaN
    50 ( vir )        NaN        NaN      0.000      1.890      1.000        NaN
    51 ( vir )        NaN        NaN      0.000      1.964      1.000        NaN
   
  GW HOMO-LUMO gap (eV)                                                      NaN
  
  PERFORMANCE| PDGEMM flop rate (Gflops / MPI rank):                       24.77
  
  GW quasiparticle energies
  -------------------------
   
  The GW quasiparticle energies are calculated according to: 
  E_GW = E_SCF + Z * ( Sigc(E_SCF) + Sigx - vxc )
   
  The energy unit of the following table is eV.  Sigc_fit is a very conservative
  estimate of the statistical error of the fitting.
   
            MO      E_SCF       Sigc   Sigc_fit   Sigx-vxc          Z       E_GW
    12 ( occ )        NaN        NaN      0.000    -10.142      1.000        NaN
    13 ( occ )        NaN        NaN      0.000     -9.622      1.000        NaN
    14 ( occ )        NaN        NaN      0.000     -8.860      1.000        NaN
    15 ( occ )        NaN        NaN      0.000     -8.063      1.000        NaN
    16 ( occ )        NaN        NaN      0.000     -7.359      1.000        NaN
    17 ( occ )        NaN        NaN      0.000     -6.900      1.000        NaN
    18 ( occ )        NaN        NaN      0.000     -6.186      1.000        NaN
    19 ( occ )        NaN        NaN      0.000     -6.004      1.000        NaN
    20 ( occ )        NaN        NaN      0.000     -5.683      1.000        NaN
    21 ( occ )        NaN        NaN      0.000     -6.023      1.000        NaN
    22 ( occ )        NaN        NaN      0.000     -5.487      1.000        NaN
    23 ( occ )        NaN        NaN      0.000     -4.600      1.000        NaN
    24 ( occ )        NaN        NaN      0.000     -3.870      1.000        NaN
    25 ( occ )        NaN        NaN      0.000     -5.817      1.000        NaN
    26 ( occ )        NaN        NaN      0.000     -5.857      1.000        NaN
    27 ( occ )        NaN        NaN      0.000     -5.728      1.000        NaN
    28 ( occ )        NaN        NaN      0.000     -2.949      1.000        NaN
    29 ( occ )        NaN        NaN      0.000     -5.246      1.000        NaN
    30 ( occ )        NaN        NaN      0.000     -2.464      1.000        NaN
    31 ( occ )        NaN        NaN      0.000     -4.948      1.000        NaN
    32 ( vir )        NaN        NaN      0.000      5.137      1.000        NaN
    33 ( vir )        NaN        NaN      0.000      5.294      1.000        NaN
    34 ( vir )        NaN        NaN      0.000      6.035      1.000        NaN
    35 ( vir )        NaN        NaN      0.000      2.213      1.000        NaN
    36 ( vir )        NaN        NaN      0.000      2.000      1.000        NaN
    37 ( vir )        NaN        NaN      0.000      2.633      1.000        NaN
    38 ( vir )        NaN        NaN      0.000      6.025      1.000        NaN
    39 ( vir )        NaN        NaN      0.000      2.518      1.000        NaN
    40 ( vir )        NaN        NaN      0.000      2.342      1.000        NaN
    41 ( vir )        NaN        NaN      0.000      2.272      1.000        NaN
    42 ( vir )        NaN        NaN      0.000      2.524      1.000        NaN
    43 ( vir )        NaN        NaN      0.000      2.581      1.000        NaN
    44 ( vir )        NaN        NaN      0.000      3.010      1.000        NaN
    45 ( vir )        NaN        NaN      0.000      2.446      1.000        NaN
    46 ( vir )        NaN        NaN      0.000      2.557      1.000        NaN
    47 ( vir )        NaN        NaN      0.000      2.529      1.000        NaN
    48 ( vir )        NaN        NaN      0.000      1.693      1.000        NaN
    49 ( vir )        NaN        NaN      0.000      5.816      1.000        NaN
    50 ( vir )        NaN        NaN      0.000      1.890      1.000        NaN
    51 ( vir )        NaN        NaN      0.000      1.964      1.000        NaN
   
  GW HOMO-LUMO gap (eV)                                                      NaN
  
  PERFORMANCE| PDGEMM flop rate (Gflops / MPI rank):                       24.11
  
  GW quasiparticle energies
  -------------------------
   
  The GW quasiparticle energies are calculated according to: 
  E_GW = E_SCF + Z * ( Sigc(E_SCF) + Sigx - vxc )
   
  The energy unit of the following table is eV.  Sigc_fit is a very conservative
  estimate of the statistical error of the fitting.
   
            MO      E_SCF       Sigc   Sigc_fit   Sigx-vxc          Z       E_GW
    12 ( occ )        NaN        NaN      0.000    -10.142      1.000        NaN
    13 ( occ )        NaN        NaN      0.000     -9.622      1.000        NaN
    14 ( occ )        NaN        NaN      0.000     -8.860      1.000        NaN
    15 ( occ )        NaN        NaN      0.000     -8.063      1.000        NaN
    16 ( occ )        NaN        NaN      0.000     -7.359      1.000        NaN
    17 ( occ )        NaN        NaN      0.000     -6.900      1.000        NaN
    18 ( occ )        NaN        NaN      0.000     -6.186      1.000        NaN
    19 ( occ )        NaN        NaN      0.000     -6.004      1.000        NaN
    20 ( occ )        NaN        NaN      0.000     -5.683      1.000        NaN
    21 ( occ )        NaN        NaN      0.000     -6.023      1.000        NaN
    22 ( occ )        NaN        NaN      0.000     -5.487      1.000        NaN
    23 ( occ )        NaN        NaN      0.000     -4.600      1.000        NaN
    24 ( occ )        NaN        NaN      0.000     -3.870      1.000        NaN
    25 ( occ )        NaN        NaN      0.000     -5.817      1.000        NaN
    26 ( occ )        NaN        NaN      0.000     -5.857      1.000        NaN
    27 ( occ )        NaN        NaN      0.000     -5.728      1.000        NaN
    28 ( occ )        NaN        NaN      0.000     -2.949      1.000        NaN
    29 ( occ )        NaN        NaN      0.000     -5.246      1.000        NaN
    30 ( occ )        NaN        NaN      0.000     -2.464      1.000        NaN
    31 ( occ )        NaN        NaN      0.000     -4.948      1.000        NaN
    32 ( vir )        NaN        NaN      0.000      5.137      1.000        NaN
    33 ( vir )        NaN        NaN      0.000      5.294      1.000        NaN
    34 ( vir )        NaN        NaN      0.000      6.035      1.000        NaN
    35 ( vir )        NaN        NaN      0.000      2.213      1.000        NaN
    36 ( vir )        NaN        NaN      0.000      2.000      1.000        NaN
    37 ( vir )        NaN        NaN      0.000      2.633      1.000        NaN
    38 ( vir )        NaN        NaN      0.000      6.025      1.000        NaN
    39 ( vir )        NaN        NaN      0.000      2.518      1.000        NaN
    40 ( vir )        NaN        NaN      0.000      2.342      1.000        NaN
    41 ( vir )        NaN        NaN      0.000      2.272      1.000        NaN
    42 ( vir )        NaN        NaN      0.000      2.524      1.000        NaN
    43 ( vir )        NaN        NaN      0.000      2.581      1.000        NaN
    44 ( vir )        NaN        NaN      0.000      3.010      1.000        NaN
    45 ( vir )        NaN        NaN      0.000      2.446      1.000        NaN
    46 ( vir )        NaN        NaN      0.000      2.557      1.000        NaN
    47 ( vir )        NaN        NaN      0.000      2.529      1.000        NaN
    48 ( vir )        NaN        NaN      0.000      1.693      1.000        NaN
    49 ( vir )        NaN        NaN      0.000      5.816      1.000        NaN
    50 ( vir )        NaN        NaN      0.000      1.890      1.000        NaN
    51 ( vir )        NaN        NaN      0.000      1.964      1.000        NaN
   
  GW HOMO-LUMO gap (eV)                                                      NaN
  
  PERFORMANCE| PDGEMM flop rate (Gflops / MPI rank):                       23.45
  
  GW quasiparticle energies
  -------------------------
   
  The GW quasiparticle energies are calculated according to: 
  E_GW = E_SCF + Z * ( Sigc(E_SCF) + Sigx - vxc )
   
  The energy unit of the following table is eV.  Sigc_fit is a very conservative
  estimate of the statistical error of the fitting.
   
            MO      E_SCF       Sigc   Sigc_fit   Sigx-vxc          Z       E_GW
    12 ( occ )        NaN        NaN      0.000    -10.142      1.000        NaN
    13 ( occ )        NaN        NaN      0.000     -9.622      1.000        NaN
    14 ( occ )        NaN        NaN      0.000     -8.860      1.000        NaN
    15 ( occ )        NaN        NaN      0.000     -8.063      1.000        NaN
    16 ( occ )        NaN        NaN      0.000     -7.359      1.000        NaN
    17 ( occ )        NaN        NaN      0.000     -6.900      1.000        NaN
    18 ( occ )        NaN        NaN      0.000     -6.186      1.000        NaN
    19 ( occ )        NaN        NaN      0.000     -6.004      1.000        NaN
    20 ( occ )        NaN        NaN      0.000     -5.683      1.000        NaN
    21 ( occ )        NaN        NaN      0.000     -6.023      1.000        NaN
    22 ( occ )        NaN        NaN      0.000     -5.487      1.000        NaN
    23 ( occ )        NaN        NaN      0.000     -4.600      1.000        NaN
    24 ( occ )        NaN        NaN      0.000     -3.870      1.000        NaN
    25 ( occ )        NaN        NaN      0.000     -5.817      1.000        NaN
    26 ( occ )        NaN        NaN      0.000     -5.857      1.000        NaN
    27 ( occ )        NaN        NaN      0.000     -5.728      1.000        NaN
    28 ( occ )        NaN        NaN      0.000     -2.949      1.000        NaN
    29 ( occ )        NaN        NaN      0.000     -5.246      1.000        NaN
    30 ( occ )        NaN        NaN      0.000     -2.464      1.000        NaN
    31 ( occ )        NaN        NaN      0.000     -4.948      1.000        NaN
    32 ( vir )        NaN        NaN      0.000      5.137      1.000        NaN
    33 ( vir )        NaN        NaN      0.000      5.294      1.000        NaN
    34 ( vir )        NaN        NaN      0.000      6.035      1.000        NaN
    35 ( vir )        NaN        NaN      0.000      2.213      1.000        NaN
    36 ( vir )        NaN        NaN      0.000      2.000      1.000        NaN
    37 ( vir )        NaN        NaN      0.000      2.633      1.000        NaN
    38 ( vir )        NaN        NaN      0.000      6.025      1.000        NaN
    39 ( vir )        NaN        NaN      0.000      2.518      1.000        NaN
    40 ( vir )        NaN        NaN      0.000      2.342      1.000        NaN
    41 ( vir )        NaN        NaN      0.000      2.272      1.000        NaN
    42 ( vir )        NaN        NaN      0.000      2.524      1.000        NaN
    43 ( vir )        NaN        NaN      0.000      2.581      1.000        NaN
    44 ( vir )        NaN        NaN      0.000      3.010      1.000        NaN
    45 ( vir )        NaN        NaN      0.000      2.446      1.000        NaN
    46 ( vir )        NaN        NaN      0.000      2.557      1.000        NaN
    47 ( vir )        NaN        NaN      0.000      2.529      1.000        NaN
    48 ( vir )        NaN        NaN      0.000      1.693      1.000        NaN
    49 ( vir )        NaN        NaN      0.000      5.816      1.000        NaN
    50 ( vir )        NaN        NaN      0.000      1.890      1.000        NaN
    51 ( vir )        NaN        NaN      0.000      1.964      1.000        NaN
   
  GW HOMO-LUMO gap (eV)                                                      NaN
  
  PERFORMANCE| PDGEMM flop rate (Gflops / MPI rank):                       22.77
  
  GW quasiparticle energies
  -------------------------
   
  The GW quasiparticle energies are calculated according to: 
  E_GW = E_SCF + Z * ( Sigc(E_SCF) + Sigx - vxc )
   
  The energy unit of the following table is eV.  Sigc_fit is a very conservative
  estimate of the statistical error of the fitting.
   
            MO      E_SCF       Sigc   Sigc_fit   Sigx-vxc          Z       E_GW
    12 ( occ )        NaN        NaN      0.000    -10.142      1.000        NaN
    13 ( occ )        NaN        NaN      0.000     -9.622      1.000        NaN
    14 ( occ )        NaN        NaN      0.000     -8.860      1.000        NaN
    15 ( occ )        NaN        NaN      0.000     -8.063      1.000        NaN
    16 ( occ )        NaN        NaN      0.000     -7.359      1.000        NaN
    17 ( occ )        NaN        NaN      0.000     -6.900      1.000        NaN
    18 ( occ )        NaN        NaN      0.000     -6.186      1.000        NaN
    19 ( occ )        NaN        NaN      0.000     -6.004      1.000        NaN
    20 ( occ )        NaN        NaN      0.000     -5.683      1.000        NaN
    21 ( occ )        NaN        NaN      0.000     -6.023      1.000        NaN
    22 ( occ )        NaN        NaN      0.000     -5.487      1.000        NaN
    23 ( occ )        NaN        NaN      0.000     -4.600      1.000        NaN
    24 ( occ )        NaN        NaN      0.000     -3.870      1.000        NaN
    25 ( occ )        NaN        NaN      0.000     -5.817      1.000        NaN
    26 ( occ )        NaN        NaN      0.000     -5.857      1.000        NaN
    27 ( occ )        NaN        NaN      0.000     -5.728      1.000        NaN
    28 ( occ )        NaN        NaN      0.000     -2.949      1.000        NaN
    29 ( occ )        NaN        NaN      0.000     -5.246      1.000        NaN
    30 ( occ )        NaN        NaN      0.000     -2.464      1.000        NaN
    31 ( occ )        NaN        NaN      0.000     -4.948      1.000        NaN
    32 ( vir )        NaN        NaN      0.000      5.137      1.000        NaN
    33 ( vir )        NaN        NaN      0.000      5.294      1.000        NaN
    34 ( vir )        NaN        NaN      0.000      6.035      1.000        NaN
    35 ( vir )        NaN        NaN      0.000      2.213      1.000        NaN
    36 ( vir )        NaN        NaN      0.000      2.000      1.000        NaN
    37 ( vir )        NaN        NaN      0.000      2.633      1.000        NaN
    38 ( vir )        NaN        NaN      0.000      6.025      1.000        NaN
    39 ( vir )        NaN        NaN      0.000      2.518      1.000        NaN
    40 ( vir )        NaN        NaN      0.000      2.342      1.000        NaN
    41 ( vir )        NaN        NaN      0.000      2.272      1.000        NaN
    42 ( vir )        NaN        NaN      0.000      2.524      1.000        NaN
    43 ( vir )        NaN        NaN      0.000      2.581      1.000        NaN
    44 ( vir )        NaN        NaN      0.000      3.010      1.000        NaN
    45 ( vir )        NaN        NaN      0.000      2.446      1.000        NaN
    46 ( vir )        NaN        NaN      0.000      2.557      1.000        NaN
    47 ( vir )        NaN        NaN      0.000      2.529      1.000        NaN
    48 ( vir )        NaN        NaN      0.000      1.693      1.000        NaN
    49 ( vir )        NaN        NaN      0.000      5.816      1.000        NaN
    50 ( vir )        NaN        NaN      0.000      1.890      1.000        NaN
    51 ( vir )        NaN        NaN      0.000      1.964      1.000        NaN
   
  GW HOMO-LUMO gap (eV)                                                      NaN
  
  PERFORMANCE| PDGEMM flop rate (Gflops / MPI rank):                       22.06
  
  GW quasiparticle energies
  -------------------------
   
  The GW quasiparticle energies are calculated according to: 
  E_GW = E_SCF + Z * ( Sigc(E_SCF) + Sigx - vxc )
   
  The energy unit of the following table is eV.  Sigc_fit is a very conservative
  estimate of the statistical error of the fitting.
   
            MO      E_SCF       Sigc   Sigc_fit   Sigx-vxc          Z       E_GW
    12 ( occ )        NaN        NaN      0.000    -10.142      1.000        NaN
    13 ( occ )        NaN        NaN      0.000     -9.622      1.000        NaN
    14 ( occ )        NaN        NaN      0.000     -8.860      1.000        NaN
    15 ( occ )        NaN        NaN      0.000     -8.063      1.000        NaN
    16 ( occ )        NaN        NaN      0.000     -7.359      1.000        NaN
    17 ( occ )        NaN        NaN      0.000     -6.900      1.000        NaN
    18 ( occ )        NaN        NaN      0.000     -6.186      1.000        NaN
    19 ( occ )        NaN        NaN      0.000     -6.004      1.000        NaN
    20 ( occ )        NaN        NaN      0.000     -5.683      1.000        NaN
    21 ( occ )        NaN        NaN      0.000     -6.023      1.000        NaN
    22 ( occ )        NaN        NaN      0.000     -5.487      1.000        NaN
    23 ( occ )        NaN        NaN      0.000     -4.600      1.000        NaN
    24 ( occ )        NaN        NaN      0.000     -3.870      1.000        NaN
    25 ( occ )        NaN        NaN      0.000     -5.817      1.000        NaN
    26 ( occ )        NaN        NaN      0.000     -5.857      1.000        NaN
    27 ( occ )        NaN        NaN      0.000     -5.728      1.000        NaN
    28 ( occ )        NaN        NaN      0.000     -2.949      1.000        NaN
    29 ( occ )        NaN        NaN      0.000     -5.246      1.000        NaN
    30 ( occ )        NaN        NaN      0.000     -2.464      1.000        NaN
    31 ( occ )        NaN        NaN      0.000     -4.948      1.000        NaN
    32 ( vir )        NaN        NaN      0.000      5.137      1.000        NaN
    33 ( vir )        NaN        NaN      0.000      5.294      1.000        NaN
    34 ( vir )        NaN        NaN      0.000      6.035      1.000        NaN
    35 ( vir )        NaN        NaN      0.000      2.213      1.000        NaN
    36 ( vir )        NaN        NaN      0.000      2.000      1.000        NaN
    37 ( vir )        NaN        NaN      0.000      2.633      1.000        NaN
    38 ( vir )        NaN        NaN      0.000      6.025      1.000        NaN
    39 ( vir )        NaN        NaN      0.000      2.518      1.000        NaN
    40 ( vir )        NaN        NaN      0.000      2.342      1.000        NaN
    41 ( vir )        NaN        NaN      0.000      2.272      1.000        NaN
    42 ( vir )        NaN        NaN      0.000      2.524      1.000        NaN
    43 ( vir )        NaN        NaN      0.000      2.581      1.000        NaN
    44 ( vir )        NaN        NaN      0.000      3.010      1.000        NaN
    45 ( vir )        NaN        NaN      0.000      2.446      1.000        NaN
    46 ( vir )        NaN        NaN      0.000      2.557      1.000        NaN
    47 ( vir )        NaN        NaN      0.000      2.529      1.000        NaN
    48 ( vir )        NaN        NaN      0.000      1.693      1.000        NaN
    49 ( vir )        NaN        NaN      0.000      5.816      1.000        NaN
    50 ( vir )        NaN        NaN      0.000      1.890      1.000        NaN
    51 ( vir )        NaN        NaN      0.000      1.964      1.000        NaN
   
  GW HOMO-LUMO gap (eV)                                                      NaN
  
  PERFORMANCE| PDGEMM flop rate (Gflops / MPI rank):                       21.36
  
  GW quasiparticle energies
  -------------------------
   
  The GW quasiparticle energies are calculated according to: 
  E_GW = E_SCF + Z * ( Sigc(E_SCF) + Sigx - vxc )
   
  The energy unit of the following table is eV.  Sigc_fit is a very conservative
  estimate of the statistical error of the fitting.
   
            MO      E_SCF       Sigc   Sigc_fit   Sigx-vxc          Z       E_GW
    12 ( occ )        NaN        NaN      0.000    -10.142      1.000        NaN
    13 ( occ )        NaN        NaN      0.000     -9.622      1.000        NaN
    14 ( occ )        NaN        NaN      0.000     -8.860      1.000        NaN
    15 ( occ )        NaN        NaN      0.000     -8.063      1.000        NaN
    16 ( occ )        NaN        NaN      0.000     -7.359      1.000        NaN
    17 ( occ )        NaN        NaN      0.000     -6.900      1.000        NaN
    18 ( occ )        NaN        NaN      0.000     -6.186      1.000        NaN
    19 ( occ )        NaN        NaN      0.000     -6.004      1.000        NaN
    20 ( occ )        NaN        NaN      0.000     -5.683      1.000        NaN
    21 ( occ )        NaN        NaN      0.000     -6.023      1.000        NaN
    22 ( occ )        NaN        NaN      0.000     -5.487      1.000        NaN
    23 ( occ )        NaN        NaN      0.000     -4.600      1.000        NaN
    24 ( occ )        NaN        NaN      0.000     -3.870      1.000        NaN
    25 ( occ )        NaN        NaN      0.000     -5.817      1.000        NaN
    26 ( occ )        NaN        NaN      0.000     -5.857      1.000        NaN
    27 ( occ )        NaN        NaN      0.000     -5.728      1.000        NaN
    28 ( occ )        NaN        NaN      0.000     -2.949      1.000        NaN
    29 ( occ )        NaN        NaN      0.000     -5.246      1.000        NaN
    30 ( occ )        NaN        NaN      0.000     -2.464      1.000        NaN
    31 ( occ )        NaN        NaN      0.000     -4.948      1.000        NaN
    32 ( vir )        NaN        NaN      0.000      5.137      1.000        NaN
    33 ( vir )        NaN        NaN      0.000      5.294      1.000        NaN
    34 ( vir )        NaN        NaN      0.000      6.035      1.000        NaN
    35 ( vir )        NaN        NaN      0.000      2.213      1.000        NaN
    36 ( vir )        NaN        NaN      0.000      2.000      1.000        NaN
    37 ( vir )        NaN        NaN      0.000      2.633      1.000        NaN
    38 ( vir )        NaN        NaN      0.000      6.025      1.000        NaN
    39 ( vir )        NaN        NaN      0.000      2.518      1.000        NaN
    40 ( vir )        NaN        NaN      0.000      2.342      1.000        NaN
    41 ( vir )        NaN        NaN      0.000      2.272      1.000        NaN
    42 ( vir )        NaN        NaN      0.000      2.524      1.000        NaN
    43 ( vir )        NaN        NaN      0.000      2.581      1.000        NaN
    44 ( vir )        NaN        NaN      0.000      3.010      1.000        NaN
    45 ( vir )        NaN        NaN      0.000      2.446      1.000        NaN
    46 ( vir )        NaN        NaN      0.000      2.557      1.000        NaN
    47 ( vir )        NaN        NaN      0.000      2.529      1.000        NaN
    48 ( vir )        NaN        NaN      0.000      1.693      1.000        NaN
    49 ( vir )        NaN        NaN      0.000      5.816      1.000        NaN
    50 ( vir )        NaN        NaN      0.000      1.890      1.000        NaN
    51 ( vir )        NaN        NaN      0.000      1.964      1.000        NaN
   
  GW HOMO-LUMO gap (eV)                                                      NaN
  

  Total RI-RPA Time=                                                   38.287394
  RI-RPA energy  =                                                           NaN

  Total EXX Time=                                                       0.214025
  EXX energy  =                                                 0.00000000000000

 ENERGY| Total FORCE_EVAL ( QS ) energy (a.u.):                              NaN


 *******************************************************************************
 *   ___                                                                       *
 *  /   \                                                                      *
 * [ABORT]                                                                     *
 *  \___/            Potential energy is an abnormal value (NaN/Inf).          *
 *    |                                                                        *
 *  O/|                                                                        *
 * /| |                                                                        *
 * / \                                                 force_env_methods.F:344 *
 *******************************************************************************


 ===== Routine Calling Stack ===== 

            1 CP2K
