 DBCSR| CPU Multiplication driver                                           XSMM
 DBCSR| Multrec recursion limit                                              512
 DBCSR| Multiplication stack size                                           1000
 DBCSR| Maximum elements for images                                    UNLIMITED
 DBCSR| Multiplicative factor virtual images                                   1
 DBCSR| Use multiplication densification                                       T
 DBCSR| Multiplication size stacks                                             3
 DBCSR| Number of 3D layers                                               SINGLE
 DBCSR| Use MPI memory allocation                                              T
 DBCSR| Use RMA algorithm                                                      F
 DBCSR| Use Communication thread                                               T
 DBCSR| Communication thread load                                             87


  **** **** ******  **  PROGRAM STARTED AT               2021-07-19 08:51:26.942
 ***** ** ***  *** **   PROGRAM STARTED ON                                 n1233
 **    ****   ******    PROGRAM STARTED BY                             ka_bh5670
 ***** **    ** ** **   PROGRAM PROCESS ID                               2131220
  **** **  *******  **  PROGRAM STARTED IN /tmp/ka_bh5670.3062155/bh5670/sim/000
                                           002

 CP2K| version string:                                          CP2K version 7.1
 CP2K| source code revision number:                                  git:e635599
 CP2K| cp2kflags: libint fftw3 libxc parallel mpi3 scalapack xsmm spglib        
 CP2K| is freely available from                            https://www.cp2k.org/
 CP2K| Program compiled at                          Do 6. Mai 20:02:55 CEST 2021
 CP2K| Program compiled on                                                 n1731
 CP2K| Program compiled for                                                local
 CP2K| Data directory path    /lustre/home/ka/ka_int/ka_bh5670/cp2k/cp2k-7.1/dat
 CP2K| Input file name                                                diag_3.inp

 GLOBAL| Force Environment number                                              1
 GLOBAL| Basis set file name                                 BASIS_CC_AUG_RI_NEW
 GLOBAL| Potential file name                                           POTENTIAL
 GLOBAL| MM Potential file name                                     MM_POTENTIAL
 GLOBAL| Coordinate file name                               dsgdb9nsd_000002.xyz
 GLOBAL| Method name                                                        CP2K
 GLOBAL| Project name                                                          3
 GLOBAL| Preferred FFT library                                             FFTW3
 GLOBAL| Preferred diagonalization lib.                                       SL
 GLOBAL| Run type                                                         ENERGY
 GLOBAL| All-to-all communication in single precision                          F
 GLOBAL| FFTs using library dependent lengths                                  T
 GLOBAL| Global print level                                                  LOW
 GLOBAL| MPI I/O enabled                                                       T
 GLOBAL| Total number of message passing processes                            16
 GLOBAL| Number of threads for this process                                    1
 GLOBAL| This output is from process                                           0
 GLOBAL| CPU model name                 Intel(R) Xeon(R) Gold 6252 CPU @ 2.10GHz
 GLOBAL| CPUID                                                              1003

 MEMORY| system memory details [Kb]
 MEMORY|                        rank 0           min           max       average
 MEMORY| MemTotal            196673224     196673224     196673224     196673224
 MEMORY| MemFree             167451500     167451500     167451500     167451500
 MEMORY| Buffers                     0             0             0             0
 MEMORY| Cached                4957832       4957828       4957832       4957828
 MEMORY| Slab                  3143128       3143128       3143128       3143128
 MEMORY| SReclaimable          1584088       1584088       1584088       1584088
 MEMORY| MemLikelyFree       173993420     173993416     173993420     173993416


 GENERATE|  Preliminary Number of Bonds generated:                             0
 GENERATE|  Achieved consistency in connectivity generation.

 *******************************************************************************
 *******************************************************************************
 **                                                                           **
 **     #####                         ##              ##                      **
 **    ##   ##            ##          ##              ##                      **
 **   ##     ##                       ##            ######                    **
 **   ##     ##  ##   ##  ##   #####  ##  ##   ####   ##    #####    #####    **
 **   ##     ##  ##   ##  ##  ##      ## ##   ##      ##   ##   ##  ##   ##   **
 **   ##  ## ##  ##   ##  ##  ##      ####     ###    ##   ######   ######    **
 **    ##  ###   ##   ##  ##  ##      ## ##      ##   ##   ##       ##        **
 **     #######   #####   ##   #####  ##  ##  ####    ##    #####   ##        **
 **           ##                                                    ##        **
 **                                                                           **
 **                                                ... make the atoms dance   **
 **                                                                           **
 **            Copyright (C) by CP2K developers group (2000 - 2019)           **
 **                                                                           **
 *******************************************************************************

 *** WARNING in qs_environment.F:1310 :: More added MOs requested than ***
 *** available. The full set of unoccupied MOs will be used.           ***



 TOTAL NUMBERS AND MAXIMUM NUMBERS

  Total number of            - Atomic kinds:                                   2
                             - Atoms:                                          4
                             - Shell sets:                                    26
                             - Shells:                                        41
                             - Primitive Cartesian functions:                 55
                             - Cartesian basis functions:                    130
                             - Spherical basis functions:                    115

  Maximum angular momentum of the orbital basis functions:                     3


 SCF PARAMETERS         Density guess:                                   RESTART
                        --------------------------------------------------------
                        max_scf:                                             100
                        max_scf_history:                                       0
                        max_diis:                                              4
                        --------------------------------------------------------
                        eps_scf:                                        1.00E-06
                        eps_scf_history:                                0.00E+00
                        eps_diis:                                       1.00E-01
                        eps_eigval:                                     1.00E-05
                        --------------------------------------------------------
                        level_shift [a.u.]:                                 0.00
                        added MOs                                       110    0
                        --------------------------------------------------------
                        Mixing method:                            BROYDEN_MIXING
                                                charge density mixing in g-space
                        --------------------------------------------------------
                        No outer SCF
 
 RI-RPA| using GPW style
 

 Number of electrons:                                                         10
 Number of occupied orbitals:                                                  5
 Number of molecular orbitals:                                               115

 Number of orbital functions:                                                115
 Number of independent orbital functions:                                    115

 Extrapolation method: initial_guess


 SCF WAVEFUNCTION OPTIMIZATION

  Step     Update method      Time    Convergence         Total energy    Change
  ------------------------------------------------------------------------------
     1 NoMix/Diag. 0.20E+00    0.6     1.1855E-09       -56.5111933001 -5.65E+01

  *** SCF run converged in     1 steps ***


  Electronic density on regular grids:         -7.9419117272        2.0580882728
  Core density on regular grids:               10.0000000000       -0.0000000000
  Hard and soft densities (Lebedev):          -62.4404932000      -60.3824059333
  Total Rho_soft + Rho1_hard - Rho1_soft       -9.9999989939
  Total charge density (r-space):               0.0000010061
  Total Rho_soft + Rho0_soft (g-space):         0.0000009814

  Overlap energy of the core charge distribution:               0.00000049999209
  Self energy of the core charge distribution:                -52.03099861979277
  Core Hamiltonian energy:                                     -5.77050870469037
  Hartree energy:                                              17.53085202454774
  Exchange-correlation energy:                                 -3.56129624027384

  GAPW| Exc from hard and soft atomic rho1:                    -4.37709496228121
  GAPW| local Eh = 1 center integrals:                         -8.30214729756721

  Total energy:                                               -56.51119330006556
  
  Eigenvalues of the occupied subspace spin            1
 ---------------------------------------------
     -13.96817179      -0.77966230      -0.41270289      -0.41266679
      -0.22998226
 Fermi Energy [eV] :   -6.258135
  
  Lowest eigenvalues of the unoccupied subspace spin            1
 ---------------------------------------------
      -0.02694837       0.02104347       0.02116138       0.06188640
       0.08314840       0.10922625       0.10929115       0.11488565
       0.11501575       0.15269776


 RI-RPA section
 --------------

  Used number of processes per group:                                          1
  Maximum allowed memory usage per MPI processes:                    4000.00 MiB
  GPW_INFO| Density cutoff [a.u.]:                                         150.0
  GPW_INFO| Relative density cutoff [a.u.]:                                 25.0
  RI_INFO| Cholesky decomposition group size:                                  1
  RI_INFO| Number of groups for auxiliary basis functions                     16
  RI_INFO| Occupied  basis set size:                                           5
  RI_INFO| Virtual   basis set size:                                         110
  RI_INFO| Auxiliary basis set size:                                         244
  RI_INFO| Total memory for (ia|K) integrals:                           1.02 MiB
  RI_INFO| Total memory for G0W0-(nm|K) integrals:                      5.35 MiB
  RI_INFO| Minimum required memory per MPI process:                     0.13 MiB
  RI_INFO| Available memory per MPI process:                         3693.00 MiB
  RI_INFO| Group size for frequency integration:                               8
  INTEG_INFO| Clenshaw-Curtius quadrature
  INTEG_INFO| Number of integration points:                                   50
  INTEG_INFO| Number of integration points per RPA group:                     25
  MATRIX_INFO| Number row processes:                                           4
  MATRIX_INFO| Number column processes:                                        2
  MATRIX_INFO| Row block size:                                                68
  MATRIX_INFO| Column block size:                                             61
  INTEG_INFO| Scaling parameter:                                         0.20000
  PERFORMANCE| PDGEMM flop rate (Gflops / MPI rank):                        0.82
  
  GW quasiparticle energies
  -------------------------
   
  The GW quasiparticle energies are calculated according to: 
  E_GW = E_SCF + Z * ( Sigc(E_SCF) + Sigx - vxc )
   
  The energy unit of the following table is eV.  Sigc_fit is a very conservative
  estimate of the statistical error of the fitting.
   
            MO      E_SCF       Sigc   Sigc_fit   Sigx-vxc          Z       E_GW
     1 ( occ )   -380.093      4.778      0.000    -42.058      1.000   -417.373
     2 ( occ )    -21.216      5.629      0.000     -9.871      1.000    -25.458
     3 ( occ )    -11.230      1.268      0.000     -5.793      1.000    -15.755
     4 ( occ )    -11.229      1.256      0.000     -5.793      1.000    -15.766
     5 ( occ )     -6.258      1.630      0.000     -5.483      1.000    -10.111
     6 ( vir )     -0.733     -0.565      0.000      2.279      1.000      0.981
     7 ( vir )      0.573     -0.262      0.000      1.235      1.000      1.545
     8 ( vir )      0.576     -0.263      0.000      1.239      1.000      1.552
     9 ( vir )      1.684     -0.326      0.000      1.668      1.000      3.026
    10 ( vir )      2.263     -0.493      0.000      1.764      1.000      3.534
    11 ( vir )      2.972     -0.442      0.000      2.029      1.000      4.560
    12 ( vir )      2.974     -0.449      0.000      2.052      1.000      4.577
    13 ( vir )      3.126     -0.889      0.000      2.853      1.000      5.090
    14 ( vir )      3.130     -0.882      0.000      2.830      1.000      5.078
    15 ( vir )      4.155     -0.541      0.000      2.341      1.000      5.955
    16 ( vir )      4.155     -0.541      0.000      2.341      1.000      5.955
    17 ( vir )      4.409     -0.601      0.000      2.598      1.000      6.406
    18 ( vir )      6.980     -0.896      0.000      2.871      1.000      8.955
    19 ( vir )      7.778     -0.410      0.000      1.994      1.000      9.362
    20 ( vir )      7.965     -0.490      0.000      2.175      1.000      9.649
    21 ( vir )      7.966     -0.490      0.000      2.175      1.000      9.650
    22 ( vir )      8.757     -1.440      0.000      3.839      1.000     11.156
    23 ( vir )      8.758     -1.441      0.000      3.838      1.000     11.155
    24 ( vir )      8.780     -0.944      0.000      2.767      1.000     10.604
    25 ( vir )     10.299     -0.774      0.000      2.699      1.000     12.224
   
  GW HOMO-LUMO gap (eV)                                                    11.09
  
  PERFORMANCE| PDGEMM flop rate (Gflops / MPI rank):                        1.13
  
  GW quasiparticle energies
  -------------------------
   
  The GW quasiparticle energies are calculated according to: 
  E_GW = E_SCF + Z * ( Sigc(E_SCF) + Sigx - vxc )
   
  The energy unit of the following table is eV.  Sigc_fit is a very conservative
  estimate of the statistical error of the fitting.
   
            MO      E_SCF       Sigc   Sigc_fit   Sigx-vxc          Z       E_GW
     1 ( occ )   -417.373     -4.615      0.000    -42.058      1.000   -426.766
     2 ( occ )    -25.458      3.764      0.000     -9.871      1.000    -27.322
     3 ( occ )    -15.755      0.394      0.000     -5.793      1.000    -16.629
     4 ( occ )    -15.766      0.393      0.000     -5.793      1.000    -16.629
     5 ( occ )    -10.111      0.700      0.000     -5.483      1.000    -11.041
     6 ( vir )      0.981     -0.466      0.000      2.279      1.000      1.080
     7 ( vir )      1.545     -0.213      0.000      1.235      1.000      1.594
     8 ( vir )      1.552     -0.214      0.000      1.239      1.000      1.601
     9 ( vir )      3.026     -0.255      0.000      1.668      1.000      3.097
    10 ( vir )      3.534     -0.404      0.000      1.764      1.000      3.623
    11 ( vir )      4.560     -0.353      0.000      2.029      1.000      4.649
    12 ( vir )      4.577     -0.358      0.000      2.052      1.000      4.668
    13 ( vir )      5.090     -0.725      0.000      2.853      1.000      5.254
    14 ( vir )      5.078     -0.719      0.000      2.830      1.000      5.241
    15 ( vir )      5.955     -0.381      0.000      2.341      1.000      6.115
    16 ( vir )      5.955     -0.381      0.000      2.341      1.000      6.115
    17 ( vir )      6.406     -0.471      0.000      2.598      1.000      6.536
    18 ( vir )      8.955     -0.720      0.000      2.871      1.000      9.131
    19 ( vir )      9.362     -0.286      0.000      1.994      1.000      9.486
    20 ( vir )      9.649     -0.372      0.000      2.175      1.000      9.768
    21 ( vir )      9.650     -0.372      0.000      2.175      1.000      9.769
    22 ( vir )     11.156     -1.129      0.000      3.839      1.000     11.467
    23 ( vir )     11.155     -1.129      0.000      3.838      1.000     11.467
    24 ( vir )     10.604     -0.694      0.000      2.767      1.000     10.854
    25 ( vir )     12.224     -0.589      0.000      2.699      1.000     12.409
   
  GW HOMO-LUMO gap (eV)                                                    12.12
  
  PERFORMANCE| PDGEMM flop rate (Gflops / MPI rank):                        1.26
  
  GW quasiparticle energies
  -------------------------
   
  The GW quasiparticle energies are calculated according to: 
  E_GW = E_SCF + Z * ( Sigc(E_SCF) + Sigx - vxc )
   
  The energy unit of the following table is eV.  Sigc_fit is a very conservative
  estimate of the statistical error of the fitting.
   
            MO      E_SCF       Sigc   Sigc_fit   Sigx-vxc          Z       E_GW
     1 ( occ )   -426.766      0.251      0.000    -42.058      1.000   -421.900
     2 ( occ )    -27.322      3.366      0.000     -9.871      1.000    -27.721
     3 ( occ )    -16.629      0.288      0.000     -5.793      1.000    -16.735
     4 ( occ )    -16.629      0.288      0.000     -5.793      1.000    -16.734
     5 ( occ )    -11.041      0.584      0.000     -5.483      1.000    -11.157
     6 ( vir )      1.080     -0.456      0.000      2.279      1.000      1.089
     7 ( vir )      1.594     -0.208      0.000      1.235      1.000      1.599
     8 ( vir )      1.601     -0.209      0.000      1.239      1.000      1.606
     9 ( vir )      3.097     -0.250      0.000      1.668      1.000      3.102
    10 ( vir )      3.623     -0.396      0.000      1.764      1.000      3.631
    11 ( vir )      4.649     -0.344      0.000      2.029      1.000      4.658
    12 ( vir )      4.668     -0.349      0.000      2.052      1.000      4.677
    13 ( vir )      5.254     -0.710      0.000      2.853      1.000      5.269
    14 ( vir )      5.241     -0.704      0.000      2.830      1.000      5.256
    15 ( vir )      6.115     -0.369      0.000      2.341      1.000      6.126
    16 ( vir )      6.115     -0.369      0.000      2.341      1.000      6.127
    17 ( vir )      6.536     -0.457      0.000      2.598      1.000      6.550
    18 ( vir )      9.131     -0.701      0.000      2.871      1.000      9.150
    19 ( vir )      9.486     -0.275      0.000      1.994      1.000      9.496
    20 ( vir )      9.768     -0.360      0.000      2.175      1.000      9.780
    21 ( vir )      9.769     -0.360      0.000      2.175      1.000      9.780
    22 ( vir )     11.467     -1.098      0.000      3.839      1.000     11.498
    23 ( vir )     11.467     -1.098      0.000      3.838      1.000     11.498
    24 ( vir )     10.854     -0.672      0.000      2.767      1.000     10.876
    25 ( vir )     12.409     -0.568      0.000      2.699      1.000     12.430
   
  GW HOMO-LUMO gap (eV)                                                    12.25
  
  PERFORMANCE| PDGEMM flop rate (Gflops / MPI rank):                        1.31
  
  GW quasiparticle energies
  -------------------------
   
  The GW quasiparticle energies are calculated according to: 
  E_GW = E_SCF + Z * ( Sigc(E_SCF) + Sigx - vxc )
   
  The energy unit of the following table is eV.  Sigc_fit is a very conservative
  estimate of the statistical error of the fitting.
   
            MO      E_SCF       Sigc   Sigc_fit   Sigx-vxc          Z       E_GW
     1 ( occ )   -421.900     -3.272      0.000    -42.058      1.000   -425.423
     2 ( occ )    -27.721      3.310      0.000     -9.871      1.000    -27.777
     3 ( occ )    -16.735      0.275      0.000     -5.793      1.000    -16.748
     4 ( occ )    -16.734      0.275      0.000     -5.793      1.000    -16.747
     5 ( occ )    -11.157      0.570      0.000     -5.483      1.000    -11.171
     6 ( vir )      1.089     -0.455      0.000      2.279      1.000      1.090
     7 ( vir )      1.599     -0.208      0.000      1.235      1.000      1.599
     8 ( vir )      1.606     -0.209      0.000      1.239      1.000      1.606
     9 ( vir )      3.102     -0.249      0.000      1.668      1.000      3.102
    10 ( vir )      3.631     -0.395      0.000      1.764      1.000      3.632
    11 ( vir )      4.658     -0.342      0.000      2.029      1.000      4.659
    12 ( vir )      4.677     -0.348      0.000      2.052      1.000      4.678
    13 ( vir )      5.269     -0.708      0.000      2.853      1.000      5.271
    14 ( vir )      5.256     -0.702      0.000      2.830      1.000      5.257
    15 ( vir )      6.126     -0.368      0.000      2.341      1.000      6.128
    16 ( vir )      6.127     -0.368      0.000      2.341      1.000      6.128
    17 ( vir )      6.550     -0.455      0.000      2.598      1.000      6.552
    18 ( vir )      9.150     -0.699      0.000      2.871      1.000      9.152
    19 ( vir )      9.496     -0.274      0.000      1.994      1.000      9.498
    20 ( vir )      9.780     -0.359      0.000      2.175      1.000      9.781
    21 ( vir )      9.780     -0.359      0.000      2.175      1.000      9.782
    22 ( vir )     11.498     -1.095      0.000      3.839      1.000     11.502
    23 ( vir )     11.498     -1.095      0.000      3.838      1.000     11.502
    24 ( vir )     10.876     -0.669      0.000      2.767      1.000     10.878
    25 ( vir )     12.430     -0.566      0.000      2.699      1.000     12.432
   
  GW HOMO-LUMO gap (eV)                                                    12.26
  
  PERFORMANCE| PDGEMM flop rate (Gflops / MPI rank):                        1.31
  
  GW quasiparticle energies
  -------------------------
   
  The GW quasiparticle energies are calculated according to: 
  E_GW = E_SCF + Z * ( Sigc(E_SCF) + Sigx - vxc )
   
  The energy unit of the following table is eV.  Sigc_fit is a very conservative
  estimate of the statistical error of the fitting.
   
            MO      E_SCF       Sigc   Sigc_fit   Sigx-vxc          Z       E_GW
     1 ( occ )   -425.423      0.771      0.000    -42.058      1.000   -421.380
     2 ( occ )    -27.777      3.302      0.000     -9.871      1.000    -27.785
     3 ( occ )    -16.748      0.273      0.000     -5.793      1.000    -16.750
     4 ( occ )    -16.747      0.273      0.000     -5.793      1.000    -16.749
     5 ( occ )    -11.171      0.568      0.000     -5.483      1.000    -11.173
     6 ( vir )      1.090     -0.455      0.000      2.279      1.000      1.090
     7 ( vir )      1.599     -0.208      0.000      1.235      1.000      1.600
     8 ( vir )      1.606     -0.208      0.000      1.239      1.000      1.606
     9 ( vir )      3.102     -0.249      0.000      1.668      1.000      3.102
    10 ( vir )      3.632     -0.395      0.000      1.764      1.000      3.632
    11 ( vir )      4.659     -0.342      0.000      2.029      1.000      4.659
    12 ( vir )      4.678     -0.348      0.000      2.052      1.000      4.678
    13 ( vir )      5.271     -0.708      0.000      2.853      1.000      5.271
    14 ( vir )      5.257     -0.702      0.000      2.830      1.000      5.257
    15 ( vir )      6.128     -0.368      0.000      2.341      1.000      6.128
    16 ( vir )      6.128     -0.368      0.000      2.341      1.000      6.128
    17 ( vir )      6.552     -0.455      0.000      2.598      1.000      6.552
    18 ( vir )      9.152     -0.699      0.000      2.871      1.000      9.152
    19 ( vir )      9.498     -0.274      0.000      1.994      1.000      9.498
    20 ( vir )      9.781     -0.358      0.000      2.175      1.000      9.781
    21 ( vir )      9.782     -0.358      0.000      2.175      1.000      9.782
    22 ( vir )     11.502     -1.094      0.000      3.839      1.000     11.502
    23 ( vir )     11.502     -1.094      0.000      3.838      1.000     11.502
    24 ( vir )     10.878     -0.669      0.000      2.767      1.000     10.878
    25 ( vir )     12.432     -0.566      0.000      2.699      1.000     12.432
   
  GW HOMO-LUMO gap (eV)                                                    12.26
  
  PERFORMANCE| PDGEMM flop rate (Gflops / MPI rank):                        1.28
  
  GW quasiparticle energies
  -------------------------
   
  The GW quasiparticle energies are calculated according to: 
  E_GW = E_SCF + Z * ( Sigc(E_SCF) + Sigx - vxc )
   
  The energy unit of the following table is eV.  Sigc_fit is a very conservative
  estimate of the statistical error of the fitting.
   
            MO      E_SCF       Sigc   Sigc_fit   Sigx-vxc          Z       E_GW
     1 ( occ )   -421.380      0.710      0.000    -42.058      1.000   -421.441
     2 ( occ )    -27.785      3.300      0.000     -9.871      1.000    -27.786
     3 ( occ )    -16.750      0.273      0.000     -5.793      1.000    -16.751
     4 ( occ )    -16.749      0.273      0.000     -5.793      1.000    -16.749
     5 ( occ )    -11.173      0.568      0.000     -5.483      1.000    -11.173
     6 ( vir )      1.090     -0.455      0.000      2.279      1.000      1.090
     7 ( vir )      1.600     -0.208      0.000      1.235      1.000      1.600
     8 ( vir )      1.606     -0.208      0.000      1.239      1.000      1.606
     9 ( vir )      3.102     -0.249      0.000      1.668      1.000      3.102
    10 ( vir )      3.632     -0.395      0.000      1.764      1.000      3.632
    11 ( vir )      4.659     -0.342      0.000      2.029      1.000      4.659
    12 ( vir )      4.678     -0.348      0.000      2.052      1.000      4.678
    13 ( vir )      5.271     -0.708      0.000      2.853      1.000      5.271
    14 ( vir )      5.257     -0.702      0.000      2.830      1.000      5.257
    15 ( vir )      6.128     -0.368      0.000      2.341      1.000      6.128
    16 ( vir )      6.128     -0.368      0.000      2.341      1.000      6.128
    17 ( vir )      6.552     -0.455      0.000      2.598      1.000      6.552
    18 ( vir )      9.152     -0.699      0.000      2.871      1.000      9.152
    19 ( vir )      9.498     -0.274      0.000      1.994      1.000      9.498
    20 ( vir )      9.781     -0.358      0.000      2.175      1.000      9.781
    21 ( vir )      9.782     -0.358      0.000      2.175      1.000      9.782
    22 ( vir )     11.502     -1.094      0.000      3.839      1.000     11.502
    23 ( vir )     11.502     -1.094      0.000      3.838      1.000     11.502
    24 ( vir )     10.878     -0.669      0.000      2.767      1.000     10.878
    25 ( vir )     12.432     -0.566      0.000      2.699      1.000     12.432
   
  GW HOMO-LUMO gap (eV)                                                    12.26
  

  Total RI-RPA Time=                                                    0.894664
  RI-RPA energy  =                                             -0.35753593405592

  Total EXX Time=                                                       0.188952
  EXX energy  =                                                 0.00000000000000

 ENERGY| Total FORCE_EVAL ( QS ) energy (a.u.):              -48.930338032001934


 -------------------------------------------------------------------------------
 -                                                                             -
 -                                DBCSR STATISTICS                             -
 -                                                                             -
 -------------------------------------------------------------------------------
 COUNTER                                    TOTAL       BLAS       SMM       ACC
 flops     2 x    16 x    16                16384       0.0%    100.0%      0.0%
 flops     3 x    16 x    16                24576       0.0%    100.0%      0.0%
 flops     2 x    15 x    16                46080       0.0%    100.0%      0.0%
 flops     2 x    16 x    15                46080       0.0%    100.0%      0.0%
 flops     8 x    16 x    16                65536       0.0%    100.0%      0.0%
 flops     3 x    15 x    16                69120       0.0%    100.0%      0.0%
 flops     3 x    16 x    15                69120       0.0%    100.0%      0.0%
 flops    46 x    23 x    19                80408       0.0%    100.0%      0.0%
 flops     2 x    15 x    15               129600       0.0%    100.0%      0.0%
 flops     1 x     1 x     1               132608       0.0%    100.0%      0.0%
 flops    46 x    32 x    46               135424       0.0%    100.0%      0.0%
 flops    46 x    46 x    19               160816       0.0%    100.0%      0.0%
 flops    23 x    46 x    19               160816       0.0%    100.0%      0.0%
 flops     8 x    15 x    16               184320       0.0%    100.0%      0.0%
 flops     8 x    16 x    15               184320       0.0%    100.0%      0.0%
 flops     3 x    15 x    15               194400       0.0%    100.0%      0.0%
 flops    46 x    32 x    23               203136       0.0%    100.0%      0.0%
 flops    23 x    32 x    46               203136       0.0%    100.0%      0.0%
 flops    23 x    23 x    19               241224       0.0%    100.0%      0.0%
 flops    46 x    23 x    46               292008       0.0%    100.0%      0.0%
 flops    23 x    32 x    23               304704       0.0%    100.0%      0.0%
 flops    46 x    46 x    46               389344       0.0%    100.0%      0.0%
 flops    46 x    23 x    32               406272       0.0%    100.0%      0.0%
 flops    23 x    23 x    46               438012       0.0%    100.0%      0.0%
 flops    46 x    23 x    23               438012       0.0%    100.0%      0.0%
 flops    12 x    16 x    16               491520       0.0%    100.0%      0.0%
 flops     8 x    15 x    15               518400       0.0%    100.0%      0.0%
 flops    46 x    46 x    23               584016       0.0%    100.0%      0.0%
 flops    23 x    46 x    46               584016       0.0%    100.0%      0.0%
 flops    23 x    23 x    23               657018       0.0%    100.0%      0.0%
 flops    46 x    46 x    32               812544       0.0%    100.0%      0.0%
 flops    23 x    46 x    32               812544       0.0%    100.0%      0.0%
 flops    23 x    46 x    23               876024       0.0%    100.0%      0.0%
 flops    23 x    23 x    32              1218816       0.0%    100.0%      0.0%
 flops    12 x    15 x    16              1382400       0.0%    100.0%      0.0%
 flops    12 x    16 x    15              1382400       0.0%    100.0%      0.0%
 flops     5 x    14 x    46              1571360       0.0%    100.0%      0.0%
 flops     4 x    16 x    16              1802240       0.0%    100.0%      0.0%
 flops     5 x    14 x    23              2357040       0.0%    100.0%      0.0%
 flops    12 x    15 x    15              3888000       0.0%    100.0%      0.0%
 flops     4 x    15 x    16              5068800       0.0%    100.0%      0.0%
 flops     4 x    16 x    15              5068800       0.0%    100.0%      0.0%
 flops    46 x     5 x    46              5163040       0.0%    100.0%      0.0%
 flops    46 x     5 x    23              7744560       0.0%    100.0%      0.0%
 flops    23 x     5 x    46              7744560       0.0%    100.0%      0.0%
 flops    25 x    19 x    46             10662800       0.0%    100.0%      0.0%
 flops     5 x    32 x    46             10775040       0.0%    100.0%      0.0%
 flops    23 x     5 x    23             11616840       0.0%    100.0%      0.0%
 flops     4 x    15 x    15             14256000       0.0%    100.0%      0.0%
 flops    25 x    19 x    23             15994200       0.0%    100.0%      0.0%
 flops     5 x    32 x    23             16162560       0.0%    100.0%      0.0%
 flops    16 x    16 x    16             25559040       0.0%    100.0%      0.0%
 flops    46 x    25 x    46             25815200       0.0%    100.0%      0.0%
 flops    46 x    25 x    23             38722800       0.0%    100.0%      0.0%
 flops    23 x    25 x    46             38722800       0.0%    100.0%      0.0%
 flops    25 x    32 x    46             53875200       0.0%    100.0%      0.0%
 flops    23 x    25 x    23             58084200       0.0%    100.0%      0.0%
 flops    16 x    15 x    16             71884800       0.0%    100.0%      0.0%
 flops    16 x    16 x    15             71884800       0.0%    100.0%      0.0%
 flops    25 x    32 x    23             80812800       0.0%    100.0%      0.0%
 flops    16 x    15 x    15            202176000       0.0%    100.0%      0.0%
 flops inhomo. stacks                     2097152     100.0%      0.0%      0.0%
 flops total                       803.445786E+06       0.3%     99.7%      0.0%
 flops max/rank                     64.199742E+06       3.3%     96.7%      0.0%
 matmuls inhomo. stacks                       256     100.0%      0.0%      0.0%
 matmuls total                             148400       0.2%     99.8%      0.0%
 number of processed stacks                  4417       0.0%    100.0%      0.0%
 average stack size                                   256.0      33.5       0.0
 marketing flops                   795.498496E+06
 -------------------------------------------------------------------------------
 # multiplications                             69
 max memory usage/rank             339.308544E+06
 # max total images/rank                        1
 # max 3D layers                                1
 # MPI messages exchanged                     544
 MPI messages size (bytes):
  total size                         5.748592E+06
  min size                           0.000000E+00
  max size                         122.016000E+03
  average size                      10.567265E+03
 MPI breakdown and total messages size (bytes):
             size <=      128                  72                        0
       128 < size <=     8192                 305                  1371072
      8192 < size <=    32768                 143                  1613488
     32768 < size <=   131072                  24                  2764032
    131072 < size <=  4194304                   0                        0
   4194304 < size <= 16777216                   0                        0
  16777216 < size                               0                        0
 -------------------------------------------------------------------------------
 -                                                                             -
 -                      DBCSR MESSAGE PASSING PERFORMANCE                      -
 -                                                                             -
 -------------------------------------------------------------------------------
 ROUTINE             CALLS      AVE VOLUME [Bytes]
 MP_Group              105
 MP_Bcast               90                     10.
 MP_Allreduce          442                     14.
 MP_Alltoall           648                   6457.
 MP_Wait              1816
 MP_comm_split          28
 MP_ISend              618                   3829.
 MP_IRecv              618                   3741.
 MP_Memory            2558
 -------------------------------------------------------------------------------

 MEMORY| Estimated peak process memory [MiB]                                 328

 -------------------------------------------------------------------------------
 -                                                                             -
 -                         MESSAGE PASSING PERFORMANCE                         -
 -                                                                             -
 -------------------------------------------------------------------------------

 ROUTINE             CALLS      AVE VOLUME [Bytes]
 MP_Group                6
 MP_Bcast              579                9753710.
 MP_Allreduce          591                   6368.
 MP_Sync                15
 MP_Alltoall            54                5863147.
 MP_SendRecv            30                   3422.
 MP_ISendRecv          240                 121536.
 MP_Wait              1031
 MP_comm_split          11
 MP_ISend              914                  84414.
 MP_IRecv              615                 126962.
 MP_Recv                 3                  26680.
 -------------------------------------------------------------------------------


 -------------------------------------------------------------------------------
 -                                                                             -
 -                           R E F E R E N C E S                               -
 -                                                                             -
 -------------------------------------------------------------------------------
 
 CP2K version 7.1, the CP2K developers group (2019).
 CP2K is freely available from https://www.cp2k.org/ .

 Schuett, Ole; Messmer, Peter; Hutter, Juerg; VandeVondele, Joost. 
 Electronic Structure Calculations on Graphics Processing Units, John
 Wiley & Sons, Ltd, 173-190 (2016). 
 GPU-Accelerated Sparse Matrix-Matrix Multiplication for
 Linear Scaling Density Functional Theory.
 https://dx.doi.org/10.1002/9781118670712.ch8

 Del Ben, M; Schuett, O; Wentz, T; Messmer, P; Hutter, J;
 VandeVondele, J. 
 COMPUTER PHYSICS COMMUNICATIONS, 187, 120-129 (2015). 
 Enabling simulation at the fifth rung of DFT: Large scale RPA
 calculations with excellent time to solution.
 https://dx.doi.org/10.1016/j.cpc.2014.10.021

 Borstnik, U; VandeVondele, J; Weber, V; Hutter, J. 
 PARALLEL COMPUTING, 40 (5-6), 47-58 (2014). 
 Sparse matrix multiplication: The distributed block-compressed sparse
 row library.
 https://dx.doi.org/10.1016/j.parco.2014.03.012

 Hutter, J; Iannuzzi, M; Schiffmann, F; VandeVondele, J. 
 WIREs Comput Mol Sci., 4 (1), 15-25 (2014). 
 CP2K: atomistic simulations of condensed matter systems.
 https://dx.doi.org/10.1002/wcms.1159

 Del Ben, M; Hutter, J; VandeVondele, J. 
 JOURNAL OF CHEMICAL THEORY AND COMPUTATION, 9 (6), 2654-2671 (2013). 
 Electron Correlation in the Condensed Phase from a Resolution of
 Identity Approach Based on the Gaussian and Plane Waves Scheme.
 https://dx.doi.org/10.1021/ct4002202

 Del Ben, M; Hutter, J; VandeVondele, J. 
 JOURNAL OF CHEMICAL THEORY AND COMPUTATION, 8 (11), 4177-4188 (2012). 
 Second-Order Moller-Plesset Perturbation Theory in the Condensed Phase:
 An Efficient and Massively Parallel Gaussian and Plane Waves Approach.
 https://dx.doi.org/10.1021/ct300531w

 Guidon, M; Hutter, J; VandeVondele, J. 
 JOURNAL OF CHEMICAL THEORY AND COMPUTATION, 5 (11), 3010-3021 (2009). 
 Robust Periodic Hartree-Fock Exchange for Large-Scale Simulations Using
 Gaussian Basis Sets.
 https://dx.doi.org/10.1021/ct900494g

 Guidon, M; Schiffmann, F; Hutter, J; VandeVondele, J. 
 JOURNAL OF CHEMICAL PHYSICS, 128 (21), 214104 (2008). 
 Ab initio molecular dynamics using hybrid density functionals.
 https://dx.doi.org/10.1063/1.2931945

 Frigo, M; Johnson, SG. 
 PROCEEDINGS OF THE IEEE, 93 (2), 216-231 (2005). 
 The design and implementation of FFTW3.
 https://dx.doi.org/10.1109/JPROC.2004.840301

 Lippert, G; Hutter, J; Parrinello, M. 
 THEORETICAL CHEMISTRY ACCOUNTS, 103 (2), 124-140 (1999). 
 The Gaussian and augmented-plane-wave density functional method for ab
 initio molecular dynamics simulations.
 https://dx.doi.org/10.1007/s002140050523

 Krack, M; Parrinello, M. 
 PHYSICAL CHEMISTRY CHEMICAL PHYSICS, 2 (10), 2105-2112 (2000). 
 All-electron ab-initio molecular dynamics.
 https://dx.doi.org/10.1039/b001167n

 Martyna, GJ; Tuckerman, ME. 
 JOURNAL OF CHEMICAL PHYSICS, 110 (6), 2810-2821 (1999). 
 A reciprocal space based method for treating long range interactions in
 ab initio and force-field-based calculations in clusters.
 https://dx.doi.org/10.1063/1.477923

 Perdew, JP; Burke, K; Ernzerhof, M. 
 PHYSICAL REVIEW LETTERS, 77 (18), 3865-3868 (1996). 
 Generalized gradient approximation made simple.
 https://dx.doi.org/10.1103/PhysRevLett.77.3865


 -------------------------------------------------------------------------------
 -                                                                             -
 -                                T I M I N G                                  -
 -                                                                             -
 -------------------------------------------------------------------------------
 SUBROUTINE                       CALLS  ASD         SELF TIME        TOTAL TIME
                                MAXIMUM       AVERAGE  MAXIMUM  AVERAGE  MAXIMUM
 CP2K                                 1  1.0    0.007    0.010    2.657    2.658
 qs_energies                          1  2.0    0.000    0.000    2.006    2.006
 mp2_main                             1  3.0    0.000    0.000    1.088    1.089
 mp2_gpw_main                         1  4.0    0.000    0.000    0.894    0.895
 qs_ks_build_kohn_sham_matrix         2  6.0    0.000    0.000    0.782    0.782
 rpa_ri_compute_en                    1  5.0    0.000    0.000    0.751    0.752
 rpa_num_int                          1  6.0    0.001    0.001    0.747    0.747
 scf_env_do_scf                       1  3.0    0.000    0.000    0.688    0.689
 scf_env_do_scf_inner_loop            1  4.0    0.000    0.000    0.688    0.688
 qs_ks_update_qs_env                  1  5.0    0.000    0.000    0.596    0.596
 rebuild_ks_matrix                    1  6.0    0.000    0.000    0.595    0.595
 pw_transfer                         43  8.7    0.002    0.002    0.549    0.573
 fft_wrap_pw1pw2                     35 10.0    0.000    0.000    0.536    0.560
 GW_matrix_operations               150  7.0    0.001    0.002    0.542    0.551
 fft_wrap_pw1pw2_250                 18 10.9    0.034    0.036    0.431    0.460
 calc_vec_W_gw                      150  8.0    0.153    0.160    0.440    0.454
 fft3d_ps                            35 12.0    0.247    0.266    0.392    0.414
 cp_gemm                            301  9.5    0.000    0.000    0.380    0.391
 cp_gemm_fm_gemm                    301 10.5    0.000    0.000    0.379    0.391
 cp_fm_gemm                         301 11.5    0.379    0.391    0.379    0.391
 create_qs_kind_set                   1  2.0    0.000    0.000    0.338    0.339
 read_qs_kind                         2  3.0    0.196    0.200    0.338    0.339
 qs_init_subsys                       1  2.0    0.002    0.002    0.296    0.296
 qs_vxc_create                        2  7.0    0.000    0.000    0.255    0.255
 xc_vxc_pw_create                     1  9.0    0.003    0.003    0.255    0.255
 qs_env_setup                         1  3.0    0.000    0.000    0.254    0.255
 qs_env_rebuild_pw_env                2  3.5    0.000    0.000    0.254    0.254
 pw_env_rebuild                       1  5.0    0.000    0.001    0.254    0.254
 rpa_num_int_RPA_matrix_operati     150  7.0    0.001    0.001    0.201    0.217
 qs_rho_update_rho                    2  5.0    0.000    0.000    0.215    0.215
 calculate_rho_elec                   2  6.0    0.009    0.011    0.214    0.214
 pw_grid_setup                        6  6.0    0.001    0.001    0.207    0.207
 pw_grid_setup_internal               6  7.0    0.003    0.003    0.206    0.206
 rs_pw_transfer                      24  8.9    0.000    0.000    0.190    0.194
 density_rs2pw                        2  7.0    0.000    0.000    0.187    0.190
 compute_vec_Sigma_x_minus_vxc_       1  4.0    0.000    0.000    0.189    0.189
 init_scf_run                         1  3.0    0.000    0.000    0.188    0.188
 scf_env_initial_rho_setup            1  4.0    0.000    0.000    0.185    0.185
 pw_grid_sort                         6  8.0    0.120    0.122    0.165    0.168
 xc_rho_set_and_dset_create           1 10.0    0.001    0.001    0.143    0.155
 parser_read_line                 71980  4.0    0.013    0.013    0.145    0.146
 calc_mat_Q                         150  8.0    0.000    0.000    0.130    0.145
 pw_poisson_solve                     3  6.0    0.020    0.020    0.144    0.144
 prepare_gapw_den                     2  7.0    0.000    0.000    0.142    0.143
 mp2_ri_gpw_compute_in                1  5.0    0.000    0.000    0.141    0.141
 mp2_ri_gpw_compute_in_loop           1  6.0    0.000    0.000    0.137    0.137
 parser_read_line_low                77  5.0    0.015    0.083    0.133    0.134
 contract_S_to_Q                    150  9.0    0.001    0.001    0.112    0.128
 broadcast_input_information         77  6.0    0.000    0.000    0.117    0.123
 sum_up_and_integrate                 2  7.0    0.001    0.001    0.120    0.120
 integrate_v_rspace                   2  8.0    0.005    0.006    0.119    0.120
 pw_poisson_rebuild                   3  7.0    0.001    0.002    0.114    0.116
 MTin_create_screen_fn                1 10.0    0.003    0.003    0.113    0.114
 potential_pw2rs                      2  9.0    0.000    0.000    0.113    0.113
 mp_alltoall_z22v                    35 14.0    0.076    0.112    0.076    0.112
 yz_to_x                             18 12.8    0.037    0.041    0.087    0.111
 put_rho0_on_grid                     2  8.0    0.003    0.003    0.099    0.100
 rs_pw_transfer_RS2PW_250             4  9.5    0.044    0.053    0.083    0.087
 contract_B_L                         2  7.0    0.000    0.000    0.066    0.082
 fft_wrap_pw1pw2_500                  1 13.0    0.007    0.008    0.078    0.080
 cp_fm_cholesky_invert              150  8.0    0.076    0.079    0.076    0.079
 mp_bcast_i                         360  7.3    0.072    0.078    0.072    0.078
 rs_pw_transfer_PW2RS_250             4 10.0    0.042    0.044    0.075    0.077
 xc_functional_eval                   5 10.7    0.000    0.000    0.062    0.075
 pbe_lda_eval                         5 11.7    0.062    0.075    0.062    0.075
 mp2_eri_3c_integrate                 1  7.0    0.002    0.004    0.044    0.074
 integrate_set_3c                  4664  8.0    0.035    0.063    0.042    0.073
 pw_gather_p                         18 11.8    0.068    0.071    0.068    0.071
 RPA_postprocessing_nokp            150  8.0    0.002    0.002    0.065    0.065
 cp_fm_cholesky_decompose           154  8.9    0.064    0.065    0.064    0.065
 mp_waitany                         160 10.8    0.058    0.064    0.058    0.064
 x_to_yz                             17 13.2    0.031    0.034    0.056    0.061
 -------------------------------------------------------------------------------

 The number of warnings for this run is : 1
 
 -------------------------------------------------------------------------------
  **** **** ******  **  PROGRAM ENDED AT                 2021-07-19 08:51:30.034
 ***** ** ***  *** **   PROGRAM RAN ON                                     n1233
 **    ****   ******    PROGRAM RAN BY                                 ka_bh5670
 ***** **    ** ** **   PROGRAM PROCESS ID                               2131220
  **** **  *******  **  PROGRAM STOPPED IN /tmp/ka_bh5670.3062155/bh5670/sim/000
                                           002
