 DBCSR| CPU Multiplication driver                                           XSMM
 DBCSR| Multrec recursion limit                                              512
 DBCSR| Multiplication stack size                                           1000
 DBCSR| Maximum elements for images                                    UNLIMITED
 DBCSR| Multiplicative factor virtual images                                   1
 DBCSR| Use multiplication densification                                       T
 DBCSR| Multiplication size stacks                                             3
 DBCSR| Number of 3D layers                                               SINGLE
 DBCSR| Use MPI memory allocation                                              T
 DBCSR| Use RMA algorithm                                                      F
 DBCSR| Use Communication thread                                               T
 DBCSR| Communication thread load                                             87


  **** **** ******  **  PROGRAM STARTED AT               2021-07-19 08:54:03.231
 ***** ** ***  *** **   PROGRAM STARTED ON                                 n0229
 **    ****   ******    PROGRAM STARTED BY                             ka_bh5670
 ***** **    ** ** **   PROGRAM PROCESS ID                               2692596
  **** **  *******  **  PROGRAM STARTED IN /tmp/ka_bh5670.3062163/bh5670/sim/000
                                           010

 CP2K| version string:                                          CP2K version 7.1
 CP2K| source code revision number:                                  git:e635599
 CP2K| cp2kflags: libint fftw3 libxc parallel mpi3 scalapack xsmm spglib        
 CP2K| is freely available from                            https://www.cp2k.org/
 CP2K| Program compiled at                          Do 6. Mai 20:02:55 CEST 2021
 CP2K| Program compiled on                                                 n1731
 CP2K| Program compiled for                                                local
 CP2K| Data directory path    /lustre/home/ka/ka_int/ka_bh5670/cp2k/cp2k-7.1/dat
 CP2K| Input file name                                                diag_2.inp

 GLOBAL| Force Environment number                                              1
 GLOBAL| Basis set file name                                 BASIS_CC_AUG_RI_NEW
 GLOBAL| Potential file name                                           POTENTIAL
 GLOBAL| MM Potential file name                                     MM_POTENTIAL
 GLOBAL| Coordinate file name                               dsgdb9nsd_000010.xyz
 GLOBAL| Method name                                                        CP2K
 GLOBAL| Project name                                                          2
 GLOBAL| Preferred FFT library                                             FFTW3
 GLOBAL| Preferred diagonalization lib.                                       SL
 GLOBAL| Run type                                                         ENERGY
 GLOBAL| All-to-all communication in single precision                          F
 GLOBAL| FFTs using library dependent lengths                                  T
 GLOBAL| Global print level                                                  LOW
 GLOBAL| MPI I/O enabled                                                       T
 GLOBAL| Total number of message passing processes                            16
 GLOBAL| Number of threads for this process                                    1
 GLOBAL| This output is from process                                           0
 GLOBAL| CPU model name                 Intel(R) Xeon(R) Gold 6252 CPU @ 2.10GHz
 GLOBAL| CPUID                                                              1003

 MEMORY| system memory details [Kb]
 MEMORY|                        rank 0           min           max       average
 MEMORY| MemTotal            196673224     196673224     196673224     196673224
 MEMORY| MemFree             168738608     168738608     168738608     168738608
 MEMORY| Buffers                     0             0             0             0
 MEMORY| Cached                4925616       4925616       4925616       4925616
 MEMORY| Slab                  1966024       1966024       1966024       1966024
 MEMORY| SReclaimable           508980        508980        508980        508980
 MEMORY| MemLikelyFree       174173204     174173204     174173204     174173204


 GENERATE|  Preliminary Number of Bonds generated:                             0
 GENERATE|  Achieved consistency in connectivity generation.

 *******************************************************************************
 *******************************************************************************
 **                                                                           **
 **     #####                         ##              ##                      **
 **    ##   ##            ##          ##              ##                      **
 **   ##     ##                       ##            ######                    **
 **   ##     ##  ##   ##  ##   #####  ##  ##   ####   ##    #####    #####    **
 **   ##     ##  ##   ##  ##  ##      ## ##   ##      ##   ##   ##  ##   ##   **
 **   ##  ## ##  ##   ##  ##  ##      ####     ###    ##   ######   ######    **
 **    ##  ###   ##   ##  ##  ##      ## ##      ##   ##   ##       ##        **
 **     #######   #####   ##   #####  ##  ##  ####    ##    #####   ##        **
 **           ##                                                    ##        **
 **                                                                           **
 **                                                ... make the atoms dance   **
 **                                                                           **
 **            Copyright (C) by CP2K developers group (2000 - 2019)           **
 **                                                                           **
 *******************************************************************************

 *** WARNING in qs_environment.F:1310 :: More added MOs requested than ***
 *** available. The full set of unoccupied MOs will be used.           ***



 TOTAL NUMBERS AND MAXIMUM NUMBERS

  Total number of            - Atomic kinds:                                   3
                             - Atoms:                                          6
                             - Shell sets:                                    30
                             - Shells:                                        42
                             - Primitive Cartesian functions:                 72
                             - Cartesian basis functions:                    102
                             - Spherical basis functions:                     96

  Maximum angular momentum of the orbital basis functions:                     2


 SCF PARAMETERS         Density guess:                                   RESTART
                        --------------------------------------------------------
                        max_scf:                                             100
                        max_scf_history:                                       0
                        max_diis:                                              4
                        --------------------------------------------------------
                        eps_scf:                                        1.00E-06
                        eps_scf_history:                                0.00E+00
                        eps_diis:                                       1.00E-01
                        eps_eigval:                                     1.00E-05
                        --------------------------------------------------------
                        level_shift [a.u.]:                                 0.00
                        added MOs                                        85    0
                        --------------------------------------------------------
                        Mixing method:                            BROYDEN_MIXING
                                                charge density mixing in g-space
                        --------------------------------------------------------
                        No outer SCF
 
 RI-RPA| using GPW style
 

 Number of electrons:                                                         22
 Number of occupied orbitals:                                                 11
 Number of molecular orbitals:                                                96

 Number of orbital functions:                                                 96
 Number of independent orbital functions:                                     96

 Extrapolation method: initial_guess


 SCF WAVEFUNCTION OPTIMIZATION

  Step     Update method      Time    Convergence         Total energy    Change
  ------------------------------------------------------------------------------
     1 NoMix/Diag. 0.20E+00    1.0     6.5869E-09      -132.5987991874 -1.33E+02

  *** SCF run converged in     1 steps ***


  Electronic density on regular grids:        -16.3976076177        5.6023923823
  Core density on regular grids:               22.0000000000       -0.0000000000
  Hard and soft densities (Lebedev):         -104.2259542196      -98.6235616696
  Total Rho_soft + Rho1_hard - Rho1_soft      -22.0000001677
  Total charge density (r-space):              -0.0000001677
  Total Rho_soft + Rho0_soft (g-space):        -0.0000001986

  Overlap energy of the core charge distribution:               0.00003076388264
  Self energy of the core charge distribution:               -110.25649185789518
  Core Hamiltonian energy:                                    -20.70997537391320
  Hartree energy:                                              41.94948319540680
  Exchange-correlation energy:                                 -7.27965198754623

  GAPW| Exc from hard and soft atomic rho1:                   -11.34035088147023
  GAPW| local Eh = 1 center integrals:                        -24.96184304583403

  Total energy:                                              -132.59879918736945
  
  Eigenvalues of the occupied subspace spin            1
 ---------------------------------------------
     -13.99955042      -9.95124590      -9.94072488      -0.83269931
      -0.71337501      -0.47116494      -0.42144808      -0.42143238
      -0.31318980      -0.29768855      -0.29768701
 Fermi Energy [eV] :   -8.100476
  
  Lowest eigenvalues of the unoccupied subspace spin            1
 ---------------------------------------------
      -0.02903867      -0.01259640      -0.01258196       0.02016910
       0.02035888       0.02527096       0.06265016       0.07947023
       0.07951140       0.08486477


 RI-RPA section
 --------------

  Used number of processes per group:                                          1
  Maximum allowed memory usage per MPI processes:                    4000.00 MiB
  GPW_INFO| Density cutoff [a.u.]:                                         150.0
  GPW_INFO| Relative density cutoff [a.u.]:                                 25.0
  RI_INFO| Cholesky decomposition group size:                                  1
  RI_INFO| Number of groups for auxiliary basis functions                     16
  RI_INFO| Occupied  basis set size:                                          11
  RI_INFO| Virtual   basis set size:                                          85
  RI_INFO| Auxiliary basis set size:                                         285
  RI_INFO| Total memory for (ia|K) integrals:                           2.03 MiB
  RI_INFO| Total memory for G0W0-(nm|K) integrals:                      6.47 MiB
  RI_INFO| Minimum required memory per MPI process:                     0.26 MiB
  RI_INFO| Available memory per MPI process:                         3639.00 MiB
  RI_INFO| Group size for frequency integration:                               8
  INTEG_INFO| Clenshaw-Curtius quadrature
  INTEG_INFO| Number of integration points:                                   50
  INTEG_INFO| Number of integration points per RPA group:                     25
  MATRIX_INFO| Number row processes:                                           4
  MATRIX_INFO| Number column processes:                                        2
  MATRIX_INFO| Row block size:                                               116
  MATRIX_INFO| Column block size:                                             71
  INTEG_INFO| Scaling parameter:                                         0.20000
  PERFORMANCE| PDGEMM flop rate (Gflops / MPI rank):                        1.90
  
  GW quasiparticle energies
  -------------------------
   
  The GW quasiparticle energies are calculated according to: 
  E_GW = E_SCF + Z * ( Sigc(E_SCF) + Sigx - vxc )
   
  The energy unit of the following table is eV.  Sigc_fit is a very conservative
  estimate of the statistical error of the fitting.
   
            MO      E_SCF       Sigc   Sigc_fit   Sigx-vxc          Z       E_GW
     1 ( occ )   -380.947     -3.470      0.000    -42.161      1.000   -426.578
     2 ( occ )   -270.787     -6.468      0.000    -35.381      1.000   -312.636
     3 ( occ )   -270.501     -9.612      0.000    -35.465      1.000   -315.578
     4 ( occ )    -22.659      6.087      0.000    -10.323      1.000    -26.895
     5 ( occ )    -19.412      5.025      0.000     -8.484      1.000    -22.871
     6 ( occ )    -12.821      2.306      0.000     -5.658      1.000    -16.173
     7 ( occ )    -11.468      1.645      0.000     -5.296      1.000    -15.119
     8 ( occ )    -11.468      1.645      0.000     -5.296      1.000    -15.118
     9 ( occ )     -8.522      3.125      0.000     -6.305      1.000    -11.702
    10 ( occ )     -8.101      0.847      0.000     -4.186      1.000    -11.439
    11 ( occ )     -8.100      0.847      0.000     -4.186      1.000    -11.439
    12 ( vir )     -0.790     -0.658      0.000      2.312      1.000      0.864
    13 ( vir )     -0.343     -1.777      0.000      5.278      1.000      3.158
    14 ( vir )     -0.342     -1.780      0.000      5.284      1.000      3.161
    15 ( vir )      0.549     -0.538      0.000      1.981      1.000      1.992
    16 ( vir )      0.554     -0.538      0.000      1.982      1.000      1.998
    17 ( vir )      0.688     -0.431      0.000      1.728      1.000      1.984
    18 ( vir )      1.705     -0.604      0.000      2.183      1.000      3.284
    19 ( vir )      2.162     -0.385      0.000      1.709      1.000      3.487
    20 ( vir )      2.164     -0.385      0.000      1.709      1.000      3.489
    21 ( vir )      2.309     -0.571      0.000      2.189      1.000      3.928
    22 ( vir )      2.315     -0.582      0.000      2.028      1.000      3.761
    23 ( vir )      2.322     -0.586      0.000      2.015      1.000      3.751
    24 ( vir )      3.472     -1.248      0.000      3.582      1.000      5.806
    25 ( vir )      3.481     -1.241      0.000      3.562      1.000      5.802
    26 ( vir )      3.519     -1.152      0.000      3.440      1.000      5.807
    27 ( vir )      4.527     -0.985      0.000      2.840      1.000      6.382
    28 ( vir )      5.015     -0.944      0.000      2.836      1.000      6.907
    29 ( vir )      5.098     -0.705      0.000      2.379      1.000      6.772
    30 ( vir )      5.100     -0.705      0.000      2.379      1.000      6.774
    31 ( vir )      7.014     -1.232      0.000      3.227      1.000      9.010
   
  GW HOMO-LUMO gap (eV)                                                    12.30
  
  PERFORMANCE| PDGEMM flop rate (Gflops / MPI rank):                        2.61
  
  GW quasiparticle energies
  -------------------------
   
  The GW quasiparticle energies are calculated according to: 
  E_GW = E_SCF + Z * ( Sigc(E_SCF) + Sigx - vxc )
   
  The energy unit of the following table is eV.  Sigc_fit is a very conservative
  estimate of the statistical error of the fitting.
   
            MO      E_SCF       Sigc   Sigc_fit   Sigx-vxc          Z       E_GW
     1 ( occ )   -426.578      0.469      0.000    -42.161      1.000   -422.639
     2 ( occ )   -312.636     -4.517      0.000    -35.381      1.000   -310.685
     3 ( occ )   -315.578      1.502      0.000    -35.465      1.000   -304.463
     4 ( occ )    -26.895      5.405      0.000    -10.323      1.000    -27.577
     5 ( occ )    -22.871      3.389      0.000     -8.484      1.000    -24.508
     6 ( occ )    -16.173      1.356      0.000     -5.658      1.000    -17.123
     7 ( occ )    -15.119      0.835      0.000     -5.296      1.000    -15.929
     8 ( occ )    -15.118      0.835      0.000     -5.296      1.000    -15.928
     9 ( occ )    -11.702      2.080      0.000     -6.305      1.000    -12.747
    10 ( occ )    -11.439      0.253      0.000     -4.186      1.000    -12.033
    11 ( occ )    -11.439      0.253      0.000     -4.186      1.000    -12.033
    12 ( vir )      0.864     -0.524      0.000      2.312      1.000      0.999
    13 ( vir )      3.158     -1.412      0.000      5.278      1.000      3.523
    14 ( vir )      3.161     -1.414      0.000      5.284      1.000      3.527
    15 ( vir )      1.992     -0.427      0.000      1.981      1.000      2.103
    16 ( vir )      1.998     -0.427      0.000      1.982      1.000      2.109
    17 ( vir )      1.984     -0.337      0.000      1.728      1.000      2.079
    18 ( vir )      3.284     -0.477      0.000      2.183      1.000      3.411
    19 ( vir )      3.487     -0.301      0.000      1.709      1.000      3.571
    20 ( vir )      3.489     -0.301      0.000      1.709      1.000      3.572
    21 ( vir )      3.928     -0.447      0.000      2.189      1.000      4.052
    22 ( vir )      3.761     -0.462      0.000      2.028      1.000      3.881
    23 ( vir )      3.751     -0.466      0.000      2.015      1.000      3.871
    24 ( vir )      5.806     -0.963      0.000      3.582      1.000      6.091
    25 ( vir )      5.802     -0.958      0.000      3.562      1.000      6.085
    26 ( vir )      5.807     -0.909      0.000      3.440      1.000      6.050
    27 ( vir )      6.382     -0.786      0.000      2.840      1.000      6.581
    28 ( vir )      6.907     -0.732      0.000      2.836      1.000      7.119
    29 ( vir )      6.772     -0.507      0.000      2.379      1.000      6.970
    30 ( vir )      6.774     -0.507      0.000      2.379      1.000      6.972
    31 ( vir )      9.010     -0.882      0.000      3.227      1.000      9.359
   
  GW HOMO-LUMO gap (eV)                                                    13.03
  
  PERFORMANCE| PDGEMM flop rate (Gflops / MPI rank):                        2.92
  
  GW quasiparticle energies
  -------------------------
   
  The GW quasiparticle energies are calculated according to: 
  E_GW = E_SCF + Z * ( Sigc(E_SCF) + Sigx - vxc )
   
  The energy unit of the following table is eV.  Sigc_fit is a very conservative
  estimate of the statistical error of the fitting.
   
            MO      E_SCF       Sigc   Sigc_fit   Sigx-vxc          Z       E_GW
     1 ( occ )   -422.639      0.282      0.000    -42.161      1.000   -422.825
     2 ( occ )   -310.685      1.067      0.000    -35.381      1.000   -305.101
     3 ( occ )   -304.463      0.628      0.000    -35.465      1.000   -305.338
     4 ( occ )    -27.577      4.968      0.000    -10.323      1.000    -28.014
     5 ( occ )    -24.508      3.101      0.000     -8.484      1.000    -24.795
     6 ( occ )    -17.123      1.224      0.000     -5.658      1.000    -17.255
     7 ( occ )    -15.929      0.732      0.000     -5.296      1.000    -16.031
     8 ( occ )    -15.928      0.732      0.000     -5.296      1.000    -16.031
     9 ( occ )    -12.747      1.917      0.000     -6.305      1.000    -12.910
    10 ( occ )    -12.033      0.181      0.000     -4.186      1.000    -12.105
    11 ( occ )    -12.033      0.181      0.000     -4.186      1.000    -12.105
    12 ( vir )      0.999     -0.510      0.000      2.312      1.000      1.012
    13 ( vir )      3.523     -1.380      0.000      5.278      1.000      3.555
    14 ( vir )      3.527     -1.382      0.000      5.284      1.000      3.559
    15 ( vir )      2.103     -0.416      0.000      1.981      1.000      2.113
    16 ( vir )      2.109     -0.417      0.000      1.982      1.000      2.119
    17 ( vir )      2.079     -0.327      0.000      1.728      1.000      2.088
    18 ( vir )      3.411     -0.464      0.000      2.183      1.000      3.424
    19 ( vir )      3.571     -0.293      0.000      1.709      1.000      3.579
    20 ( vir )      3.572     -0.293      0.000      1.709      1.000      3.580
    21 ( vir )      4.052     -0.434      0.000      2.189      1.000      4.064
    22 ( vir )      3.881     -0.450      0.000      2.028      1.000      3.893
    23 ( vir )      3.871     -0.454      0.000      2.015      1.000      3.883
    24 ( vir )      6.091     -0.937      0.000      3.582      1.000      6.118
    25 ( vir )      6.085     -0.932      0.000      3.562      1.000      6.112
    26 ( vir )      6.050     -0.886      0.000      3.440      1.000      6.073
    27 ( vir )      6.581     -0.767      0.000      2.840      1.000      6.600
    28 ( vir )      7.119     -0.712      0.000      2.836      1.000      7.139
    29 ( vir )      6.970     -0.491      0.000      2.379      1.000      6.986
    30 ( vir )      6.972     -0.491      0.000      2.379      1.000      6.988
    31 ( vir )      9.359     -0.854      0.000      3.227      1.000      9.388
   
  GW HOMO-LUMO gap (eV)                                                    13.12
  
  PERFORMANCE| PDGEMM flop rate (Gflops / MPI rank):                        3.03
  
  GW quasiparticle energies
  -------------------------
   
  The GW quasiparticle energies are calculated according to: 
  E_GW = E_SCF + Z * ( Sigc(E_SCF) + Sigx - vxc )
   
  The energy unit of the following table is eV.  Sigc_fit is a very conservative
  estimate of the statistical error of the fitting.
   
            MO      E_SCF       Sigc   Sigc_fit   Sigx-vxc          Z       E_GW
     1 ( occ )   -422.825      0.555      0.000    -42.161      1.000   -422.553
     2 ( occ )   -305.101      0.571      0.000    -35.381      1.000   -305.597
     3 ( occ )   -305.338      0.939      0.000    -35.465      1.000   -305.026
     4 ( occ )    -28.014      4.890      0.000    -10.323      1.000    -28.092
     5 ( occ )    -24.795      3.061      0.000     -8.484      1.000    -24.835
     6 ( occ )    -17.255      1.205      0.000     -5.658      1.000    -17.274
     7 ( occ )    -16.031      0.719      0.000     -5.296      1.000    -16.044
     8 ( occ )    -16.031      0.719      0.000     -5.296      1.000    -16.044
     9 ( occ )    -12.910      1.894      0.000     -6.305      1.000    -12.933
    10 ( occ )    -12.105      0.170      0.000     -4.186      1.000    -12.116
    11 ( occ )    -12.105      0.170      0.000     -4.186      1.000    -12.116
    12 ( vir )      1.012     -0.509      0.000      2.312      1.000      1.013
    13 ( vir )      3.555     -1.377      0.000      5.278      1.000      3.558
    14 ( vir )      3.559     -1.379      0.000      5.284      1.000      3.562
    15 ( vir )      2.113     -0.415      0.000      1.981      1.000      2.114
    16 ( vir )      2.119     -0.415      0.000      1.982      1.000      2.121
    17 ( vir )      2.088     -0.326      0.000      1.728      1.000      2.089
    18 ( vir )      3.424     -0.462      0.000      2.183      1.000      3.425
    19 ( vir )      3.579     -0.292      0.000      1.709      1.000      3.580
    20 ( vir )      3.580     -0.292      0.000      1.709      1.000      3.581
    21 ( vir )      4.064     -0.433      0.000      2.189      1.000      4.066
    22 ( vir )      3.893     -0.449      0.000      2.028      1.000      3.894
    23 ( vir )      3.883     -0.453      0.000      2.015      1.000      3.884
    24 ( vir )      6.118     -0.934      0.000      3.582      1.000      6.121
    25 ( vir )      6.112     -0.929      0.000      3.562      1.000      6.114
    26 ( vir )      6.073     -0.884      0.000      3.440      1.000      6.075
    27 ( vir )      6.600     -0.765      0.000      2.840      1.000      6.602
    28 ( vir )      7.139     -0.710      0.000      2.836      1.000      7.141
    29 ( vir )      6.986     -0.489      0.000      2.379      1.000      6.988
    30 ( vir )      6.988     -0.489      0.000      2.379      1.000      6.990
    31 ( vir )      9.388     -0.851      0.000      3.227      1.000      9.391
   
  GW HOMO-LUMO gap (eV)                                                    13.13
  
  PERFORMANCE| PDGEMM flop rate (Gflops / MPI rank):                        3.03
  
  GW quasiparticle energies
  -------------------------
   
  The GW quasiparticle energies are calculated according to: 
  E_GW = E_SCF + Z * ( Sigc(E_SCF) + Sigx - vxc )
   
  The energy unit of the following table is eV.  Sigc_fit is a very conservative
  estimate of the statistical error of the fitting.
   
            MO      E_SCF       Sigc   Sigc_fit   Sigx-vxc          Z       E_GW
     1 ( occ )   -422.553      2.911      0.000    -42.161      1.000   -420.197
     2 ( occ )   -305.597     -0.091      0.000    -35.381      1.000   -306.259
     3 ( occ )   -305.026      2.026      0.000    -35.465      1.000   -303.940
     4 ( occ )    -28.092      4.877      0.000    -10.323      1.000    -28.105
     5 ( occ )    -24.835      3.056      0.000     -8.484      1.000    -24.840
     6 ( occ )    -17.274      1.203      0.000     -5.658      1.000    -17.276
     7 ( occ )    -16.044      0.718      0.000     -5.296      1.000    -16.046
     8 ( occ )    -16.044      0.717      0.000     -5.296      1.000    -16.046
     9 ( occ )    -12.933      1.890      0.000     -6.305      1.000    -12.937
    10 ( occ )    -12.116      0.169      0.000     -4.186      1.000    -12.117
    11 ( occ )    -12.116      0.169      0.000     -4.186      1.000    -12.117
    12 ( vir )      1.013     -0.509      0.000      2.312      1.000      1.014
    13 ( vir )      3.558     -1.376      0.000      5.278      1.000      3.559
    14 ( vir )      3.562     -1.378      0.000      5.284      1.000      3.563
    15 ( vir )      2.114     -0.415      0.000      1.981      1.000      2.114
    16 ( vir )      2.121     -0.415      0.000      1.982      1.000      2.121
    17 ( vir )      2.089     -0.326      0.000      1.728      1.000      2.089
    18 ( vir )      3.425     -0.462      0.000      2.183      1.000      3.426
    19 ( vir )      3.580     -0.292      0.000      1.709      1.000      3.580
    20 ( vir )      3.581     -0.292      0.000      1.709      1.000      3.581
    21 ( vir )      4.066     -0.433      0.000      2.189      1.000      4.066
    22 ( vir )      3.894     -0.449      0.000      2.028      1.000      3.894
    23 ( vir )      3.884     -0.453      0.000      2.015      1.000      3.885
    24 ( vir )      6.121     -0.933      0.000      3.582      1.000      6.121
    25 ( vir )      6.114     -0.928      0.000      3.562      1.000      6.115
    26 ( vir )      6.075     -0.884      0.000      3.440      1.000      6.076
    27 ( vir )      6.602     -0.764      0.000      2.840      1.000      6.603
    28 ( vir )      7.141     -0.709      0.000      2.836      1.000      7.141
    29 ( vir )      6.988     -0.489      0.000      2.379      1.000      6.988
    30 ( vir )      6.990     -0.489      0.000      2.379      1.000      6.990
    31 ( vir )      9.391     -0.850      0.000      3.227      1.000      9.391
   
  GW HOMO-LUMO gap (eV)                                                    13.13
  
  PERFORMANCE| PDGEMM flop rate (Gflops / MPI rank):                        2.97
  
  GW quasiparticle energies
  -------------------------
   
  The GW quasiparticle energies are calculated according to: 
  E_GW = E_SCF + Z * ( Sigc(E_SCF) + Sigx - vxc )
   
  The energy unit of the following table is eV.  Sigc_fit is a very conservative
  estimate of the statistical error of the fitting.
   
            MO      E_SCF       Sigc   Sigc_fit   Sigx-vxc          Z       E_GW
     1 ( occ )   -420.197      1.423      0.000    -42.161      1.000   -421.685
     2 ( occ )   -306.259      0.030      0.000    -35.381      1.000   -306.138
     3 ( occ )   -303.940      0.064      0.000    -35.465      1.000   -305.902
     4 ( occ )    -28.105      4.876      0.000    -10.323      1.000    -28.105
     5 ( occ )    -24.840      3.055      0.000     -8.484      1.000    -24.841
     6 ( occ )    -17.276      1.203      0.000     -5.658      1.000    -17.277
     7 ( occ )    -16.046      0.717      0.000     -5.296      1.000    -16.047
     8 ( occ )    -16.046      0.717      0.000     -5.296      1.000    -16.046
     9 ( occ )    -12.937      1.890      0.000     -6.305      1.000    -12.937
    10 ( occ )    -12.117      0.169      0.000     -4.186      1.000    -12.117
    11 ( occ )    -12.117      0.169      0.000     -4.186      1.000    -12.117
    12 ( vir )      1.014     -0.509      0.000      2.312      1.000      1.014
    13 ( vir )      3.559     -1.376      0.000      5.278      1.000      3.559
    14 ( vir )      3.563     -1.378      0.000      5.284      1.000      3.563
    15 ( vir )      2.114     -0.415      0.000      1.981      1.000      2.114
    16 ( vir )      2.121     -0.415      0.000      1.982      1.000      2.121
    17 ( vir )      2.089     -0.326      0.000      1.728      1.000      2.089
    18 ( vir )      3.426     -0.462      0.000      2.183      1.000      3.426
    19 ( vir )      3.580     -0.292      0.000      1.709      1.000      3.580
    20 ( vir )      3.581     -0.292      0.000      1.709      1.000      3.581
    21 ( vir )      4.066     -0.433      0.000      2.189      1.000      4.066
    22 ( vir )      3.894     -0.449      0.000      2.028      1.000      3.894
    23 ( vir )      3.885     -0.453      0.000      2.015      1.000      3.885
    24 ( vir )      6.121     -0.933      0.000      3.582      1.000      6.121
    25 ( vir )      6.115     -0.928      0.000      3.562      1.000      6.115
    26 ( vir )      6.076     -0.884      0.000      3.440      1.000      6.076
    27 ( vir )      6.603     -0.764      0.000      2.840      1.000      6.603
    28 ( vir )      7.141     -0.709      0.000      2.836      1.000      7.141
    29 ( vir )      6.988     -0.489      0.000      2.379      1.000      6.988
    30 ( vir )      6.990     -0.489      0.000      2.379      1.000      6.990
    31 ( vir )      9.391     -0.850      0.000      3.227      1.000      9.391
   
  GW HOMO-LUMO gap (eV)                                                    13.13
  

  Total RI-RPA Time=                                                    1.438327
  RI-RPA energy  =                                             -0.58655379637788

  Total EXX Time=                                                       0.299962
  EXX energy  =                                                 0.00000000000000

 ENERGY| Total FORCE_EVAL ( QS ) energy (a.u.):             -114.565350115421424


 -------------------------------------------------------------------------------
 -                                                                             -
 -                                DBCSR STATISTICS                             -
 -                                                                             -
 -------------------------------------------------------------------------------
 COUNTER                                    TOTAL       BLAS       SMM       ACC
 flops     3 x     1 x     1                   54       0.0%    100.0%      0.0%
 flops     4 x     1 x     1                   72       0.0%    100.0%      0.0%
 flops     3 x     2 x     1                  468       0.0%    100.0%      0.0%
 flops     3 x     1 x     2                  468       0.0%    100.0%      0.0%
 flops     4 x     2 x     1                  624       0.0%    100.0%      0.0%
 flops     4 x     1 x     2                  624       0.0%    100.0%      0.0%
 flops     3 x     2 x     2                 4056       0.0%    100.0%      0.0%
 flops     3 x    16 x     1                 4608       0.0%    100.0%      0.0%
 flops     3 x     1 x    16                 4608       0.0%    100.0%      0.0%
 flops     4 x     2 x     2                 5408       0.0%    100.0%      0.0%
 flops     4 x    16 x     1                 6144       0.0%    100.0%      0.0%
 flops     4 x     1 x    16                 6144       0.0%    100.0%      0.0%
 flops    12 x     1 x     1                 9720       0.0%    100.0%      0.0%
 flops    27 x    27 x    27                39366       0.0%    100.0%      0.0%
 flops     3 x    16 x     2                39936       0.0%    100.0%      0.0%
 flops     3 x     2 x    16                39936       0.0%    100.0%      0.0%
 flops     9 x    32 x     9                46656       0.0%    100.0%      0.0%
 flops     4 x    16 x     2                53248       0.0%    100.0%      0.0%
 flops     4 x     2 x    16                53248       0.0%    100.0%      0.0%
 flops    16 x     1 x     1                60480       0.0%    100.0%      0.0%
 flops     9 x    23 x     9                67068       0.0%    100.0%      0.0%
 flops    12 x     2 x     1                84240       0.0%    100.0%      0.0%
 flops    12 x     1 x     2                84240       0.0%    100.0%      0.0%
 flops    23 x    27 x    27               100602       0.0%    100.0%      0.0%
 flops    27 x    23 x    27               100602       0.0%    100.0%      0.0%
 flops    27 x    27 x    23               100602       0.0%    100.0%      0.0%
 flops    23 x    32 x     9               119232       0.0%    100.0%      0.0%
 flops     9 x    32 x    23               119232       0.0%    100.0%      0.0%
 flops    23 x    23 x     9               171396       0.0%    100.0%      0.0%
 flops     9 x    23 x    23               171396       0.0%    100.0%      0.0%
 flops     9 x     9 x    32               186624       0.0%    100.0%      0.0%
 flops    23 x    23 x    27               257094       0.0%    100.0%      0.0%
 flops    23 x    27 x    23               257094       0.0%    100.0%      0.0%
 flops    27 x    23 x    23               257094       0.0%    100.0%      0.0%
 flops    23 x    32 x    23               304704       0.0%    100.0%      0.0%
 flops    23 x     9 x    32               317952       0.0%    100.0%      0.0%
 flops     3 x    16 x    16               393216       0.0%    100.0%      0.0%
 flops     9 x    23 x    32               397440       0.0%    100.0%      0.0%
 flops    16 x     2 x     1               524160       0.0%    100.0%      0.0%
 flops    16 x     1 x     2               524160       0.0%    100.0%      0.0%
 flops     4 x    16 x    16               524288       0.0%    100.0%      0.0%
 flops     1 x     1 x     1               528384       0.0%    100.0%      0.0%
 flops    12 x     2 x     2               730080       0.0%    100.0%      0.0%
 flops    12 x    16 x     1               829440       0.0%    100.0%      0.0%
 flops    12 x     1 x    16               829440       0.0%    100.0%      0.0%
 flops    23 x    23 x    23              1095030       0.0%    100.0%      0.0%
 flops    23 x    23 x    32              1218816       0.0%    100.0%      0.0%
 flops    11 x    21 x     9              3555090       0.0%    100.0%      0.0%
 flops    16 x     2 x     2              4542720       0.0%    100.0%      0.0%
 flops     9 x    11 x     9              4570830       0.0%    100.0%      0.0%
 flops    16 x    16 x     1              5160960       0.0%    100.0%      0.0%
 flops    16 x     1 x    16              5160960       0.0%    100.0%      0.0%
 flops    12 x    16 x     2              7188480       0.0%    100.0%      0.0%
 flops    12 x     2 x    16              7188480       0.0%    100.0%      0.0%
 flops    11 x    21 x    23              9085230       0.0%    100.0%      0.0%
 flops    11 x    32 x     9             10834560       0.0%    100.0%      0.0%
 flops    23 x    11 x     9             11681010       0.0%    100.0%      0.0%
 flops     9 x    11 x    23             11681010       0.0%    100.0%      0.0%
 flops     9 x    31 x     9             12881430       0.0%    100.0%      0.0%
 flops    11 x    32 x    23             27688320       0.0%    100.0%      0.0%
 flops    23 x    11 x    23             29851470       0.0%    100.0%      0.0%
 flops    23 x    31 x     9             32919210       0.0%    100.0%      0.0%
 flops     9 x    31 x    23             32919210       0.0%    100.0%      0.0%
 flops    16 x    16 x     2             44728320       0.0%    100.0%      0.0%
 flops    16 x     2 x    16             44728320       0.0%    100.0%      0.0%
 flops    31 x    32 x     9             45800640       0.0%    100.0%      0.0%
 flops    12 x    16 x    16             70778880       0.0%    100.0%      0.0%
 flops    23 x    31 x    23             84126870       0.0%    100.0%      0.0%
 flops    31 x    32 x    23            117046080       0.0%    100.0%      0.0%
 flops    16 x    16 x    16            440401920       0.0%    100.0%      0.0%
 flops inhomo. stacks                     8388608     100.0%      0.0%      0.0%
 flops total                         1.083578E+09       0.8%     99.2%      0.0%
 flops max/rank                     77.081968E+06       5.4%     94.6%      0.0%
 matmuls inhomo. stacks                      1024     100.0%      0.0%      0.0%
 matmuls total                             559462       0.2%     99.8%      0.0%
 number of processed stacks                  5516       0.1%     99.9%      0.0%
 average stack size                                   256.0     101.3       0.0
 marketing flops                     1.072262E+09
 -------------------------------------------------------------------------------
 # multiplications                             81
 max memory usage/rank             391.839744E+06
 # max total images/rank                        1
 # max 3D layers                                1
 # MPI messages exchanged                     608
 MPI messages size (bytes):
  total size                        16.196248E+06
  min size                           0.000000E+00
  max size                         454.656000E+03
  average size                      26.638566E+03
 MPI breakdown and total messages size (bytes):
             size <=      128                 108                        0
       128 < size <=     8192                 436                  2080768
      8192 < size <=    32768                   0                        0
     32768 < size <=   131072                   8                   775200
    131072 < size <=  4194304                  56                 13340280
   4194304 < size <= 16777216                   0                        0
  16777216 < size                               0                        0
 -------------------------------------------------------------------------------
 -                                                                             -
 -                      DBCSR MESSAGE PASSING PERFORMANCE                      -
 -                                                                             -
 -------------------------------------------------------------------------------
 ROUTINE             CALLS      AVE VOLUME [Bytes]
 MP_Group              111
 MP_Bcast               99                     10.
 MP_Allreduce          508                     15.
 MP_Alltoall           737                   6536.
 MP_Wait              2120
 MP_comm_split          28
 MP_ISend              700                   4625.
 MP_IRecv              700                   4642.
 MP_Memory            3026
 -------------------------------------------------------------------------------

 MEMORY| Estimated peak process memory [MiB]                                 377

 -------------------------------------------------------------------------------
 -                                                                             -
 -                         MESSAGE PASSING PERFORMANCE                         -
 -                                                                             -
 -------------------------------------------------------------------------------

 ROUTINE             CALLS      AVE VOLUME [Bytes]
 MP_Group                6
 MP_Bcast              810               10049245.
 MP_Allreduce          599                   7817.
 MP_Sync                15
 MP_Alltoall            54                7243993.
 MP_SendRecv            30                   2404.
 MP_ISendRecv          240                 152544.
 MP_Wait              1632
 MP_comm_split          11
 MP_ISend              914                  97840.
 MP_IRecv             1216                  77904.
 MP_Recv                 3                  18432.
 -------------------------------------------------------------------------------


 -------------------------------------------------------------------------------
 -                                                                             -
 -                           R E F E R E N C E S                               -
 -                                                                             -
 -------------------------------------------------------------------------------
 
 CP2K version 7.1, the CP2K developers group (2019).
 CP2K is freely available from https://www.cp2k.org/ .

 Schuett, Ole; Messmer, Peter; Hutter, Juerg; VandeVondele, Joost. 
 Electronic Structure Calculations on Graphics Processing Units, John
 Wiley & Sons, Ltd, 173-190 (2016). 
 GPU-Accelerated Sparse Matrix-Matrix Multiplication for
 Linear Scaling Density Functional Theory.
 https://dx.doi.org/10.1002/9781118670712.ch8

 Del Ben, M; Schuett, O; Wentz, T; Messmer, P; Hutter, J;
 VandeVondele, J. 
 COMPUTER PHYSICS COMMUNICATIONS, 187, 120-129 (2015). 
 Enabling simulation at the fifth rung of DFT: Large scale RPA
 calculations with excellent time to solution.
 https://dx.doi.org/10.1016/j.cpc.2014.10.021

 Borstnik, U; VandeVondele, J; Weber, V; Hutter, J. 
 PARALLEL COMPUTING, 40 (5-6), 47-58 (2014). 
 Sparse matrix multiplication: The distributed block-compressed sparse
 row library.
 https://dx.doi.org/10.1016/j.parco.2014.03.012

 Hutter, J; Iannuzzi, M; Schiffmann, F; VandeVondele, J. 
 WIREs Comput Mol Sci., 4 (1), 15-25 (2014). 
 CP2K: atomistic simulations of condensed matter systems.
 https://dx.doi.org/10.1002/wcms.1159

 Del Ben, M; Hutter, J; VandeVondele, J. 
 JOURNAL OF CHEMICAL THEORY AND COMPUTATION, 9 (6), 2654-2671 (2013). 
 Electron Correlation in the Condensed Phase from a Resolution of
 Identity Approach Based on the Gaussian and Plane Waves Scheme.
 https://dx.doi.org/10.1021/ct4002202

 Del Ben, M; Hutter, J; VandeVondele, J. 
 JOURNAL OF CHEMICAL THEORY AND COMPUTATION, 8 (11), 4177-4188 (2012). 
 Second-Order Moller-Plesset Perturbation Theory in the Condensed Phase:
 An Efficient and Massively Parallel Gaussian and Plane Waves Approach.
 https://dx.doi.org/10.1021/ct300531w

 Guidon, M; Hutter, J; VandeVondele, J. 
 JOURNAL OF CHEMICAL THEORY AND COMPUTATION, 5 (11), 3010-3021 (2009). 
 Robust Periodic Hartree-Fock Exchange for Large-Scale Simulations Using
 Gaussian Basis Sets.
 https://dx.doi.org/10.1021/ct900494g

 Guidon, M; Schiffmann, F; Hutter, J; VandeVondele, J. 
 JOURNAL OF CHEMICAL PHYSICS, 128 (21), 214104 (2008). 
 Ab initio molecular dynamics using hybrid density functionals.
 https://dx.doi.org/10.1063/1.2931945

 Frigo, M; Johnson, SG. 
 PROCEEDINGS OF THE IEEE, 93 (2), 216-231 (2005). 
 The design and implementation of FFTW3.
 https://dx.doi.org/10.1109/JPROC.2004.840301

 Lippert, G; Hutter, J; Parrinello, M. 
 THEORETICAL CHEMISTRY ACCOUNTS, 103 (2), 124-140 (1999). 
 The Gaussian and augmented-plane-wave density functional method for ab
 initio molecular dynamics simulations.
 https://dx.doi.org/10.1007/s002140050523

 Krack, M; Parrinello, M. 
 PHYSICAL CHEMISTRY CHEMICAL PHYSICS, 2 (10), 2105-2112 (2000). 
 All-electron ab-initio molecular dynamics.
 https://dx.doi.org/10.1039/b001167n

 Martyna, GJ; Tuckerman, ME. 
 JOURNAL OF CHEMICAL PHYSICS, 110 (6), 2810-2821 (1999). 
 A reciprocal space based method for treating long range interactions in
 ab initio and force-field-based calculations in clusters.
 https://dx.doi.org/10.1063/1.477923

 Perdew, JP; Burke, K; Ernzerhof, M. 
 PHYSICAL REVIEW LETTERS, 77 (18), 3865-3868 (1996). 
 Generalized gradient approximation made simple.
 https://dx.doi.org/10.1103/PhysRevLett.77.3865


 -------------------------------------------------------------------------------
 -                                                                             -
 -                                T I M I N G                                  -
 -                                                                             -
 -------------------------------------------------------------------------------
 SUBROUTINE                       CALLS  ASD         SELF TIME        TOTAL TIME
                                MAXIMUM       AVERAGE  MAXIMUM  AVERAGE  MAXIMUM
 CP2K                                 1  1.0    0.009    0.011    4.328    4.328
 qs_energies                          1  2.0    0.000    0.000    3.148    3.148
 mp2_main                             1  3.0    0.000    0.000    1.743    1.743
 mp2_gpw_main                         1  4.0    0.000    0.000    1.438    1.438
 rpa_ri_compute_en                    1  5.0    0.000    0.000    1.282    1.282
 rpa_num_int                          1  6.0    0.001    0.001    1.275    1.275
 qs_ks_build_kohn_sham_matrix         2  6.0    0.001    0.001    1.257    1.257
 scf_env_do_scf                       1  3.0    0.000    0.000    1.121    1.121
 scf_env_do_scf_inner_loop            1  4.0    0.000    0.000    1.121    1.121
 pw_transfer                         43  8.7    0.002    0.006    0.974    1.001
 fft_wrap_pw1pw2                     35 10.0    0.000    0.000    0.955    0.983
 qs_ks_update_qs_env                  1  5.0    0.000    0.000    0.960    0.960
 rebuild_ks_matrix                    1  6.0    0.000    0.000    0.959    0.959
 GW_matrix_operations               150  7.0    0.002    0.003    0.895    0.926
 fft_wrap_pw1pw2_250                 18 10.9    0.061    0.063    0.789    0.817
 calc_vec_W_gw                      150  8.0    0.194    0.218    0.746    0.773
 create_qs_kind_set                   1  2.0    0.000    0.000    0.769    0.769
 read_qs_kind                         3  3.0    0.323    0.444    0.769    0.769
 cp_gemm                            301  9.5    0.001    0.001    0.739    0.768
 cp_gemm_fm_gemm                    301 10.5    0.001    0.001    0.739    0.768
 cp_fm_gemm                         301 11.5    0.738    0.767    0.738    0.767
 fft3d_ps                            35 12.0    0.446    0.453    0.698    0.729
 parser_read_line                100312  4.0    0.028    0.034    0.448    0.466
 qs_vxc_create                        2  7.0    0.000    0.000    0.447    0.447
 xc_vxc_pw_create                     1  9.0    0.005    0.006    0.446    0.446
 parser_read_line_low               108  5.0    0.037    0.189    0.420    0.438
 broadcast_input_information        108  6.0    0.001    0.001    0.382    0.411
 qs_init_subsys                       1  2.0    0.002    0.003    0.392    0.392
 rpa_num_int_RPA_matrix_operati     150  7.0    0.001    0.001    0.364    0.389
 qs_env_setup                         1  3.0    0.000    0.000    0.378    0.378
 qs_env_rebuild_pw_env                2  3.5    0.000    0.000    0.377    0.377
 pw_env_rebuild                       1  5.0    0.001    0.001    0.377    0.377
 pw_grid_setup                        6  6.0    0.001    0.001    0.324    0.324
 pw_grid_setup_internal               6  7.0    0.004    0.004    0.323    0.323
 qs_rho_update_rho                    2  5.0    0.000    0.000    0.302    0.302
 calculate_rho_elec                   2  6.0    0.009    0.010    0.301    0.301
 mp_bcast_i                         484  7.2    0.269    0.300    0.269    0.300
 compute_vec_Sigma_x_minus_vxc_       1  4.0    0.000    0.000    0.300    0.300
 rs_pw_transfer                      24  8.9    0.000    0.000    0.291    0.298
 calc_mat_Q                         150  8.0    0.000    0.000    0.259    0.284
 density_rs2pw                        2  7.0    0.000    0.000    0.272    0.274
 pw_grid_sort                         6  8.0    0.189    0.191    0.259    0.263
 xc_rho_set_and_dset_create           1 10.0    0.002    0.002    0.249    0.263
 contract_S_to_Q                    150  9.0    0.001    0.001    0.220    0.246
 pw_poisson_solve                     3  6.0    0.031    0.034    0.238    0.240
 init_scf_run                         1  3.0    0.000    0.000    0.210    0.210
 scf_env_initial_rho_setup            1  4.0    0.000    0.000    0.208    0.208
 sum_up_and_integrate                 2  7.0    0.001    0.001    0.200    0.200
 integrate_v_rspace                   2  8.0    0.005    0.005    0.199    0.199
 pw_poisson_rebuild                   3  7.0    0.002    0.005    0.190    0.194
 potential_pw2rs                      2  9.0    0.000    0.000    0.193    0.194
 MTin_create_screen_fn                1 10.0    0.005    0.007    0.188    0.190
 prepare_gapw_den                     2  7.0    0.000    0.000    0.185    0.185
 put_rho0_on_grid                     2  8.0    0.004    0.004    0.172    0.173
 yz_to_x                             18 12.8    0.082    0.085    0.129    0.161
 mp2_ri_gpw_compute_in                1  5.0    0.000    0.000    0.154    0.154
 mp2_ri_gpw_compute_in_loop           1  6.0    0.000    0.000    0.147    0.147
 fft_wrap_pw1pw2_500                  1 13.0    0.010    0.010    0.136    0.139
 rs_pw_transfer_PW2RS_250             4 10.0    0.075    0.078    0.125    0.131
 x_to_yz                             17 13.2    0.086    0.088    0.121    0.124
 mp_bcast_am                        108  7.0    0.077    0.107    0.112    0.123
 pw_gather_p                         18 11.8    0.121    0.123    0.121    0.123
 mp_alltoall_z22v                    35 14.0    0.082    0.113    0.082    0.113
 rs_pw_transfer_RS2PW_250             4  9.5    0.065    0.068    0.109    0.112
 cp_fm_cholesky_invert              150  8.0    0.107    0.112    0.107    0.112
 xc_functional_eval                   5 10.6    0.000    0.000    0.095    0.108
 pbe_lda_eval                         5 11.6    0.095    0.108    0.095    0.108
 RPA_postprocessing_nokp            150  8.0    0.003    0.004    0.092    0.094
 cp_fm_cholesky_decompose           154  8.9    0.089    0.091    0.089    0.091
 -------------------------------------------------------------------------------

 The number of warnings for this run is : 1
 
 -------------------------------------------------------------------------------
  **** **** ******  **  PROGRAM ENDED AT                 2021-07-19 08:54:08.030
 ***** ** ***  *** **   PROGRAM RAN ON                                     n0229
 **    ****   ******    PROGRAM RAN BY                                 ka_bh5670
 ***** **    ** ** **   PROGRAM PROCESS ID                               2692596
  **** **  *******  **  PROGRAM STOPPED IN /tmp/ka_bh5670.3062163/bh5670/sim/000
                                           010
