 DBCSR| CPU Multiplication driver                                           XSMM
 DBCSR| Multrec recursion limit                                              512
 DBCSR| Multiplication stack size                                           1000
 DBCSR| Maximum elements for images                                    UNLIMITED
 DBCSR| Multiplicative factor virtual images                                   1
 DBCSR| Use multiplication densification                                       T
 DBCSR| Multiplication size stacks                                             3
 DBCSR| Number of 3D layers                                               SINGLE
 DBCSR| Use MPI memory allocation                                              T
 DBCSR| Use RMA algorithm                                                      F
 DBCSR| Use Communication thread                                               T
 DBCSR| Communication thread load                                             87


  **** **** ******  **  PROGRAM STARTED AT               2021-07-19 08:51:20.417
 ***** ** ***  *** **   PROGRAM STARTED ON                                 n1032
 **    ****   ******    PROGRAM STARTED BY                             ka_bh5670
 ***** **    ** ** **   PROGRAM PROCESS ID                               1355339
  **** **  *******  **  PROGRAM STARTED IN /tmp/ka_bh5670.3062157/bh5670/sim/000
                                           004

 CP2K| version string:                                          CP2K version 7.1
 CP2K| source code revision number:                                  git:e635599
 CP2K| cp2kflags: libint fftw3 libxc parallel mpi3 scalapack xsmm spglib        
 CP2K| is freely available from                            https://www.cp2k.org/
 CP2K| Program compiled at                          Do 6. Mai 20:02:55 CEST 2021
 CP2K| Program compiled on                                                 n1731
 CP2K| Program compiled for                                                local
 CP2K| Data directory path    /lustre/home/ka/ka_int/ka_bh5670/cp2k/cp2k-7.1/dat
 CP2K| Input file name                                                diag_2.inp

 GLOBAL| Force Environment number                                              1
 GLOBAL| Basis set file name                                 BASIS_CC_AUG_RI_NEW
 GLOBAL| Potential file name                                           POTENTIAL
 GLOBAL| MM Potential file name                                     MM_POTENTIAL
 GLOBAL| Coordinate file name                               dsgdb9nsd_000004.xyz
 GLOBAL| Method name                                                        CP2K
 GLOBAL| Project name                                                          2
 GLOBAL| Preferred FFT library                                             FFTW3
 GLOBAL| Preferred diagonalization lib.                                       SL
 GLOBAL| Run type                                                         ENERGY
 GLOBAL| All-to-all communication in single precision                          F
 GLOBAL| FFTs using library dependent lengths                                  T
 GLOBAL| Global print level                                                  LOW
 GLOBAL| MPI I/O enabled                                                       T
 GLOBAL| Total number of message passing processes                            16
 GLOBAL| Number of threads for this process                                    1
 GLOBAL| This output is from process                                           0
 GLOBAL| CPU model name                 Intel(R) Xeon(R) Gold 6252 CPU @ 2.10GHz
 GLOBAL| CPUID                                                              1003

 MEMORY| system memory details [Kb]
 MEMORY|                        rank 0           min           max       average
 MEMORY| MemTotal            196673220     196673220     196673220     196673220
 MEMORY| MemFree             170684036     170684036     170684036     170684036
 MEMORY| Buffers                     0             0             0             0
 MEMORY| Cached                4773948       4773948       4773948       4773948
 MEMORY| Slab                  1978044       1978044       1978044       1978044
 MEMORY| SReclaimable           479324        479324        479324        479324
 MEMORY| MemLikelyFree       175937308     175937308     175937308     175937308


 GENERATE|  Preliminary Number of Bonds generated:                             0
 GENERATE|  Achieved consistency in connectivity generation.

 *******************************************************************************
 *******************************************************************************
 **                                                                           **
 **     #####                         ##              ##                      **
 **    ##   ##            ##          ##              ##                      **
 **   ##     ##                       ##            ######                    **
 **   ##     ##  ##   ##  ##   #####  ##  ##   ####   ##    #####    #####    **
 **   ##     ##  ##   ##  ##  ##      ## ##   ##      ##   ##   ##  ##   ##   **
 **   ##  ## ##  ##   ##  ##  ##      ####     ###    ##   ######   ######    **
 **    ##  ###   ##   ##  ##  ##      ## ##      ##   ##   ##       ##        **
 **     #######   #####   ##   #####  ##  ##  ####    ##    #####   ##        **
 **           ##                                                    ##        **
 **                                                                           **
 **                                                ... make the atoms dance   **
 **                                                                           **
 **            Copyright (C) by CP2K developers group (2000 - 2019)           **
 **                                                                           **
 *******************************************************************************

 *** WARNING in qs_environment.F:1310 :: More added MOs requested than ***
 *** available. The full set of unoccupied MOs will be used.           ***



 TOTAL NUMBERS AND MAXIMUM NUMBERS

  Total number of            - Atomic kinds:                                   2
                             - Atoms:                                          4
                             - Shell sets:                                    20
                             - Shells:                                        28
                             - Primitive Cartesian functions:                 48
                             - Cartesian basis functions:                     68
                             - Spherical basis functions:                     64

  Maximum angular momentum of the orbital basis functions:                     2


 SCF PARAMETERS         Density guess:                                   RESTART
                        --------------------------------------------------------
                        max_scf:                                             100
                        max_scf_history:                                       0
                        max_diis:                                              4
                        --------------------------------------------------------
                        eps_scf:                                        1.00E-06
                        eps_scf_history:                                0.00E+00
                        eps_diis:                                       1.00E-01
                        eps_eigval:                                     1.00E-05
                        --------------------------------------------------------
                        level_shift [a.u.]:                                 0.00
                        added MOs                                        57    0
                        --------------------------------------------------------
                        Mixing method:                            BROYDEN_MIXING
                                                charge density mixing in g-space
                        --------------------------------------------------------
                        No outer SCF
 
 RI-RPA| using GPW style
 

 Number of electrons:                                                         14
 Number of occupied orbitals:                                                  7
 Number of molecular orbitals:                                                64

 Number of orbital functions:                                                 64
 Number of independent orbital functions:                                     64

 Extrapolation method: initial_guess


 SCF WAVEFUNCTION OPTIMIZATION

  Step     Update method      Time    Convergence         Total energy    Change
  ------------------------------------------------------------------------------
     1 NoMix/Diag. 0.20E+00    0.5     0.00000003       -77.2268345681 -7.72E+01

  *** SCF run converged in     1 steps ***


  Electronic density on regular grids:        -10.2732069896        3.7267930104
  Core density on regular grids:               14.0000000000       -0.0000000000
  Hard and soft densities (Lebedev):          -74.1159267087      -70.3891335169
  Total Rho_soft + Rho1_hard - Rho1_soft      -14.0000001814
  Total charge density (r-space):              -0.0000001814
  Total Rho_soft + Rho0_soft (g-space):        -0.0000002052

  Overlap energy of the core charge distribution:               0.00007292534977
  Self energy of the core charge distribution:                -61.04644115584121
  Core Hamiltonian energy:                                    -13.83228244527745
  Hartree energy:                                              25.02714930559271
  Exchange-correlation energy:                                 -4.26624885513132

  GAPW| Exc from hard and soft atomic rho1:                    -7.12140781605449
  GAPW| local Eh = 1 center integrals:                        -15.98767652676550

  Total energy:                                               -77.22683456812750
  
  Eigenvalues of the occupied subspace spin            1
 ---------------------------------------------
      -9.90884025      -9.90670066      -0.68727401      -0.51673480
      -0.44762180      -0.26408032      -0.26408032
 Fermi Energy [eV] :   -7.185991
  
  Lowest eigenvalues of the unoccupied subspace spin            1
 ---------------------------------------------
      -0.01320500      -0.01320500      -0.00135192       0.00603988
       0.05426947       0.05426947       0.05629172       0.07851186
       0.11091975       0.11091975


 RI-RPA section
 --------------

  Used number of processes per group:                                          1
  Maximum allowed memory usage per MPI processes:                    4000.00 MiB
  GPW_INFO| Density cutoff [a.u.]:                                         150.0
  GPW_INFO| Relative density cutoff [a.u.]:                                 25.0
  RI_INFO| Cholesky decomposition group size:                                  1
  RI_INFO| Number of groups for auxiliary basis functions                     16
  RI_INFO| Occupied  basis set size:                                           7
  RI_INFO| Virtual   basis set size:                                          57
  RI_INFO| Auxiliary basis set size:                                         190
  RI_INFO| Total memory for (ia|K) integrals:                           0.58 MiB
  RI_INFO| Total memory for G0W0-(nm|K) integrals:                      2.50 MiB
  RI_INFO| Minimum required memory per MPI process:                     0.07 MiB
  RI_INFO| Available memory per MPI process:                         3711.00 MiB
  RI_INFO| Group size for frequency integration:                               8
  INTEG_INFO| Clenshaw-Curtius quadrature
  INTEG_INFO| Number of integration points:                                   50
  INTEG_INFO| Number of integration points per RPA group:                     25
  MATRIX_INFO| Number row processes:                                           4
  MATRIX_INFO| Number column processes:                                        2
  MATRIX_INFO| Row block size:                                                49
  MATRIX_INFO| Column block size:                                             47
  INTEG_INFO| Scaling parameter:                                         0.20000
  PERFORMANCE| PDGEMM flop rate (Gflops / MPI rank):                        0.36
  
  GW quasiparticle energies
  -------------------------
   
  The GW quasiparticle energies are calculated according to: 
  E_GW = E_SCF + Z * ( Sigc(E_SCF) + Sigx - vxc )
   
  The energy unit of the following table is eV.  Sigc_fit is a very conservative
  estimate of the statistical error of the fitting.
   
            MO      E_SCF       Sigc   Sigc_fit   Sigx-vxc          Z       E_GW
     1 ( occ )   -269.633     -3.802      0.000    -35.464      1.000   -308.899
     2 ( occ )   -269.575     -3.151      0.000    -35.413      1.000   -308.139
     3 ( occ )    -18.702      6.359      0.000     -9.078      1.000    -21.421
     4 ( occ )    -14.061      2.865      0.000     -6.442      1.000    -17.638
     5 ( occ )    -12.180      2.125      0.000     -5.868      1.000    -15.923
     6 ( occ )     -7.186      0.399      0.000     -3.744      1.000    -10.531
     7 ( occ )     -7.186      0.399      0.000     -3.744      1.000    -10.531
     8 ( vir )     -0.359     -1.474      0.000      4.929      1.000      3.096
     9 ( vir )     -0.359     -1.474      0.000      4.929      1.000      3.096
    10 ( vir )     -0.037     -0.342      0.000      1.496      1.000      1.118
    11 ( vir )      0.164     -0.484      0.000      1.787      1.000      1.467
    12 ( vir )      1.477     -0.403      0.000      1.932      1.000      3.006
    13 ( vir )      1.477     -0.403      0.000      1.932      1.000      3.006
    14 ( vir )      1.532     -0.688      0.000      2.650      1.000      3.494
    15 ( vir )      2.136     -0.705      0.000      2.165      1.000      3.596
    16 ( vir )      3.018     -0.730      0.000      2.457      1.000      4.745
    17 ( vir )      3.018     -0.730      0.000      2.457      1.000      4.745
    18 ( vir )      3.210     -0.428      0.000      1.675      1.000      4.457
    19 ( vir )      4.063     -1.047      0.000      3.132      1.000      6.147
    20 ( vir )      5.940     -1.553      0.000      3.784      1.000      8.171
    21 ( vir )      6.625     -0.615      0.000      2.136      1.000      8.147
    22 ( vir )      7.401     -0.761      0.000      3.383      1.000     10.023
    23 ( vir )      7.401     -0.763      0.000      3.383      1.000     10.022
    24 ( vir )      7.705     -0.887      0.000      4.004      1.000     10.822
    25 ( vir )      7.705     -0.887      0.000      4.004      1.000     10.822
    26 ( vir )      9.884     -1.331      0.000      3.616      1.000     12.169
    27 ( vir )      9.884     -1.330      0.000      3.616      1.000     12.170
   
  GW HOMO-LUMO gap (eV)                                                    13.63
  
  PERFORMANCE| PDGEMM flop rate (Gflops / MPI rank):                        0.50
  
  GW quasiparticle energies
  -------------------------
   
  The GW quasiparticle energies are calculated according to: 
  E_GW = E_SCF + Z * ( Sigc(E_SCF) + Sigx - vxc )
   
  The energy unit of the following table is eV.  Sigc_fit is a very conservative
  estimate of the statistical error of the fitting.
   
            MO      E_SCF       Sigc   Sigc_fit   Sigx-vxc          Z       E_GW
     1 ( occ )   -308.899      4.213      0.000    -35.464      1.000   -300.884
     2 ( occ )   -308.139      8.144      0.000    -35.413      1.000   -296.845
     3 ( occ )    -21.421      3.922      0.000     -9.078      1.000    -23.858
     4 ( occ )    -17.638      1.619      0.000     -6.442      1.000    -18.883
     5 ( occ )    -15.923      1.201      0.000     -5.868      1.000    -16.847
     6 ( occ )    -10.531     -0.075      0.000     -3.744      1.000    -11.005
     7 ( occ )    -10.531     -0.075      0.000     -3.744      1.000    -11.005
     8 ( vir )      3.096     -1.108      0.000      4.929      1.000      3.462
     9 ( vir )      3.096     -1.108      0.000      4.929      1.000      3.462
    10 ( vir )      1.118     -0.116      0.000      1.496      1.000      1.344
    11 ( vir )      1.467     -0.199      0.000      1.787      1.000      1.752
    12 ( vir )      3.006     -0.223      0.000      1.932      1.000      3.185
    13 ( vir )      3.006     -0.223      0.000      1.932      1.000      3.185
    14 ( vir )      3.494     -0.353      0.000      2.650      1.000      3.829
    15 ( vir )      3.596     -0.482      0.000      2.165      1.000      3.819
    16 ( vir )      4.745     -0.478      0.000      2.457      1.000      4.997
    17 ( vir )      4.745     -0.478      0.000      2.457      1.000      4.997
    18 ( vir )      4.457     -0.266      0.000      1.675      1.000      4.619
    19 ( vir )      6.147     -0.715      0.000      3.132      1.000      6.479
    20 ( vir )      8.171     -0.968      0.000      3.784      1.000      8.757
    21 ( vir )      8.147     -0.452      0.000      2.136      1.000      8.310
    22 ( vir )     10.023     -0.620      0.000      3.383      1.000     10.164
    23 ( vir )     10.022     -0.620      0.000      3.383      1.000     10.164
    24 ( vir )     10.822     -0.613      0.000      4.004      1.000     11.096
    25 ( vir )     10.822     -0.613      0.000      4.004      1.000     11.096
    26 ( vir )     12.169     -0.908      0.000      3.616      1.000     12.592
    27 ( vir )     12.170     -0.908      0.000      3.616      1.000     12.592
   
  GW HOMO-LUMO gap (eV)                                                    14.47
  
  PERFORMANCE| PDGEMM flop rate (Gflops / MPI rank):                        0.55
  
  GW quasiparticle energies
  -------------------------
   
  The GW quasiparticle energies are calculated according to: 
  E_GW = E_SCF + Z * ( Sigc(E_SCF) + Sigx - vxc )
   
  The energy unit of the following table is eV.  Sigc_fit is a very conservative
  estimate of the statistical error of the fitting.
   
            MO      E_SCF       Sigc   Sigc_fit   Sigx-vxc          Z       E_GW
     1 ( occ )   -300.884      2.849      0.000    -35.464      1.000   -302.248
     2 ( occ )   -296.845     12.938      0.000    -35.413      1.000   -292.051
     3 ( occ )    -23.858      3.543      0.000     -9.078      1.000    -24.237
     4 ( occ )    -18.883      1.442      0.000     -6.442      1.000    -19.061
     5 ( occ )    -16.847      1.061      0.000     -5.868      1.000    -16.987
     6 ( occ )    -11.005     -0.130      0.000     -3.744      1.000    -11.060
     7 ( occ )    -11.005     -0.130      0.000     -3.744      1.000    -11.060
     8 ( vir )      3.462     -1.078      0.000      4.929      1.000      3.492
     9 ( vir )      3.462     -1.078      0.000      4.929      1.000      3.492
    10 ( vir )      1.344     -0.112      0.000      1.496      1.000      1.347
    11 ( vir )      1.752     -0.193      0.000      1.787      1.000      1.758
    12 ( vir )      3.185     -0.217      0.000      1.932      1.000      3.191
    13 ( vir )      3.185     -0.217      0.000      1.932      1.000      3.191
    14 ( vir )      3.829     -0.342      0.000      2.650      1.000      3.840
    15 ( vir )      3.819     -0.468      0.000      2.165      1.000      3.833
    16 ( vir )      4.997     -0.463      0.000      2.457      1.000      5.012
    17 ( vir )      4.997     -0.463      0.000      2.457      1.000      5.012
    18 ( vir )      4.619     -0.258      0.000      1.675      1.000      4.627
    19 ( vir )      6.479     -0.692      0.000      3.132      1.000      6.502
    20 ( vir )      8.757     -0.933      0.000      3.784      1.000      8.791
    21 ( vir )      8.310     -0.437      0.000      2.136      1.000      8.325
    22 ( vir )     10.164     -0.591      0.000      3.383      1.000     10.194
    23 ( vir )     10.164     -0.591      0.000      3.383      1.000     10.194
    24 ( vir )     11.096     -0.588      0.000      4.004      1.000     11.121
    25 ( vir )     11.096     -0.588      0.000      4.004      1.000     11.121
    26 ( vir )     12.592     -0.864      0.000      3.616      1.000     12.636
    27 ( vir )     12.592     -0.864      0.000      3.616      1.000     12.636
   
  GW HOMO-LUMO gap (eV)                                                    14.55
  
  PERFORMANCE| PDGEMM flop rate (Gflops / MPI rank):                        0.57
  
  GW quasiparticle energies
  -------------------------
   
  The GW quasiparticle energies are calculated according to: 
  E_GW = E_SCF + Z * ( Sigc(E_SCF) + Sigx - vxc )
   
  The energy unit of the following table is eV.  Sigc_fit is a very conservative
  estimate of the statistical error of the fitting.
   
            MO      E_SCF       Sigc   Sigc_fit   Sigx-vxc          Z       E_GW
     1 ( occ )   -302.248      1.093      0.000    -35.464      1.000   -304.004
     2 ( occ )   -292.051      5.070      0.000    -35.413      1.000   -299.918
     3 ( occ )    -24.237      3.496      0.000     -9.078      1.000    -24.283
     4 ( occ )    -19.061      1.420      0.000     -6.442      1.000    -19.083
     5 ( occ )    -16.987      1.043      0.000     -5.868      1.000    -17.005
     6 ( occ )    -11.060     -0.137      0.000     -3.744      1.000    -11.067
     7 ( occ )    -11.060     -0.137      0.000     -3.744      1.000    -11.067
     8 ( vir )      3.492     -1.075      0.000      4.929      1.000      3.495
     9 ( vir )      3.492     -1.075      0.000      4.929      1.000      3.495
    10 ( vir )      1.347     -0.112      0.000      1.496      1.000      1.348
    11 ( vir )      1.758     -0.193      0.000      1.787      1.000      1.758
    12 ( vir )      3.191     -0.217      0.000      1.932      1.000      3.192
    13 ( vir )      3.191     -0.217      0.000      1.932      1.000      3.192
    14 ( vir )      3.840     -0.342      0.000      2.650      1.000      3.840
    15 ( vir )      3.833     -0.467      0.000      2.165      1.000      3.834
    16 ( vir )      5.012     -0.462      0.000      2.457      1.000      5.013
    17 ( vir )      5.012     -0.462      0.000      2.457      1.000      5.013
    18 ( vir )      4.627     -0.257      0.000      1.675      1.000      4.628
    19 ( vir )      6.502     -0.690      0.000      3.132      1.000      6.505
    20 ( vir )      8.791     -0.930      0.000      3.784      1.000      8.794
    21 ( vir )      8.325     -0.435      0.000      2.136      1.000      8.326
    22 ( vir )     10.194     -0.588      0.000      3.383      1.000     10.196
    23 ( vir )     10.194     -0.588      0.000      3.383      1.000     10.196
    24 ( vir )     11.121     -0.588      0.000      4.004      1.000     11.121
    25 ( vir )     11.121     -0.588      0.000      4.004      1.000     11.121
    26 ( vir )     12.636     -0.862      0.000      3.616      1.000     12.638
    27 ( vir )     12.636     -0.862      0.000      3.616      1.000     12.638
   
  GW HOMO-LUMO gap (eV)                                                    14.56
  
  PERFORMANCE| PDGEMM flop rate (Gflops / MPI rank):                        0.57
  
  GW quasiparticle energies
  -------------------------
   
  The GW quasiparticle energies are calculated according to: 
  E_GW = E_SCF + Z * ( Sigc(E_SCF) + Sigx - vxc )
   
  The energy unit of the following table is eV.  Sigc_fit is a very conservative
  estimate of the statistical error of the fitting.
   
            MO      E_SCF       Sigc   Sigc_fit   Sigx-vxc          Z       E_GW
     1 ( occ )   -304.004      3.816      0.000    -35.464      1.000   -301.281
     2 ( occ )   -299.918     -5.504      0.000    -35.413      1.000   -310.492
     3 ( occ )    -24.283      3.490      0.000     -9.078      1.000    -24.289
     4 ( occ )    -19.083      1.417      0.000     -6.442      1.000    -19.086
     5 ( occ )    -17.005      1.041      0.000     -5.868      1.000    -17.007
     6 ( occ )    -11.067     -0.138      0.000     -3.744      1.000    -11.068
     7 ( occ )    -11.067     -0.138      0.000     -3.744      1.000    -11.068
     8 ( vir )      3.495     -1.075      0.000      4.929      1.000      3.495
     9 ( vir )      3.495     -1.075      0.000      4.929      1.000      3.495
    10 ( vir )      1.348     -0.112      0.000      1.496      1.000      1.348
    11 ( vir )      1.758     -0.193      0.000      1.787      1.000      1.758
    12 ( vir )      3.192     -0.217      0.000      1.932      1.000      3.192
    13 ( vir )      3.192     -0.217      0.000      1.932      1.000      3.192
    14 ( vir )      3.840     -0.341      0.000      2.650      1.000      3.840
    15 ( vir )      3.834     -0.467      0.000      2.165      1.000      3.834
    16 ( vir )      5.013     -0.462      0.000      2.457      1.000      5.013
    17 ( vir )      5.013     -0.462      0.000      2.457      1.000      5.013
    18 ( vir )      4.628     -0.257      0.000      1.675      1.000      4.628
    19 ( vir )      6.505     -0.690      0.000      3.132      1.000      6.505
    20 ( vir )      8.794     -0.930      0.000      3.784      1.000      8.795
    21 ( vir )      8.326     -0.435      0.000      2.136      1.000      8.326
    22 ( vir )     10.196     -0.588      0.000      3.383      1.000     10.197
    23 ( vir )     10.196     -0.588      0.000      3.383      1.000     10.197
    24 ( vir )     11.121     -0.588      0.000      4.004      1.000     11.121
    25 ( vir )     11.121     -0.588      0.000      4.004      1.000     11.121
    26 ( vir )     12.638     -0.862      0.000      3.616      1.000     12.638
    27 ( vir )     12.638     -0.862      0.000      3.616      1.000     12.638
   
  GW HOMO-LUMO gap (eV)                                                    14.56
  

  Total RI-RPA Time=                                                    0.447397
  RI-RPA energy  =                                             -0.34802167975745

  Total EXX Time=                                                       0.159659
  EXX energy  =                                                 0.00000000000000

 ENERGY| Total FORCE_EVAL ( QS ) energy (a.u.):              -66.187199576560815


 -------------------------------------------------------------------------------
 -                                                                             -
 -                                DBCSR STATISTICS                             -
 -                                                                             -
 -------------------------------------------------------------------------------
 COUNTER                                    TOTAL       BLAS       SMM       ACC
 flops     3 x    11 x    11                 2904       0.0%    100.0%      0.0%
 flops     4 x    11 x    11                 3872       0.0%    100.0%      0.0%
 flops     9 x     9 x     9                11664       0.0%    100.0%      0.0%
 flops     9 x    32 x     9                20736       0.0%    100.0%      0.0%
 flops     3 x    12 x    11                22176       0.0%    100.0%      0.0%
 flops     3 x    11 x    12                22176       0.0%    100.0%      0.0%
 flops     4 x    12 x    11                29568       0.0%    100.0%      0.0%
 flops     4 x    11 x    12                29568       0.0%    100.0%      0.0%
 flops     9 x     9 x    23                29808       0.0%    100.0%      0.0%
 flops    23 x     9 x     9                29808       0.0%    100.0%      0.0%
 flops    23 x    32 x     9                52992       0.0%    100.0%      0.0%
 flops     9 x    32 x    23                52992       0.0%    100.0%      0.0%
 flops     9 x    23 x     9                59616       0.0%    100.0%      0.0%
 flops     9 x     9 x    32                62208       0.0%    100.0%      0.0%
 flops     1 x     1 x     1                72704       0.0%    100.0%      0.0%
 flops    23 x     9 x    23                76176       0.0%    100.0%      0.0%
 flops     9 x    23 x    32               105984       0.0%    100.0%      0.0%
 flops    23 x     9 x    32               105984       0.0%    100.0%      0.0%
 flops    23 x    32 x    23               135424       0.0%    100.0%      0.0%
 flops    23 x    23 x     9               152352       0.0%    100.0%      0.0%
 flops     9 x    23 x    23               152352       0.0%    100.0%      0.0%
 flops     3 x    12 x    12               169344       0.0%    100.0%      0.0%
 flops     4 x    12 x    12               225792       0.0%    100.0%      0.0%
 flops    12 x    11 x    11               348480       0.0%    100.0%      0.0%
 flops    23 x    23 x    23               389344       0.0%    100.0%      0.0%
 flops    23 x    23 x    32               406272       0.0%    100.0%      0.0%
 flops     9 x     7 x     9               861840       0.0%    100.0%      0.0%
 flops     7 x    25 x     9              1197000       0.0%    100.0%      0.0%
 flops     7 x    32 x     9              1532160       0.0%    100.0%      0.0%
 flops    16 x    11 x    11              1703680       0.0%    100.0%      0.0%
 flops    23 x     7 x     9              2202480       0.0%    100.0%      0.0%
 flops     9 x     7 x    23              2202480       0.0%    100.0%      0.0%
 flops    12 x    12 x    11              2661120       0.0%    100.0%      0.0%
 flops    12 x    11 x    12              2661120       0.0%    100.0%      0.0%
 flops     7 x    25 x    23              3059000       0.0%    100.0%      0.0%
 flops     9 x    27 x     9              3324240       0.0%    100.0%      0.0%
 flops     7 x    32 x    23              3915520       0.0%    100.0%      0.0%
 flops    23 x     7 x    23              5628560       0.0%    100.0%      0.0%
 flops    23 x    27 x     9              8495280       0.0%    100.0%      0.0%
 flops     9 x    27 x    23              8495280       0.0%    100.0%      0.0%
 flops    27 x    32 x     9             11819520       0.0%    100.0%      0.0%
 flops    16 x    12 x    11             13009920       0.0%    100.0%      0.0%
 flops    16 x    11 x    12             13009920       0.0%    100.0%      0.0%
 flops    12 x    12 x    12             20321280       0.0%    100.0%      0.0%
 flops    23 x    27 x    23             21710160       0.0%    100.0%      0.0%
 flops    27 x    32 x    23             30205440       0.0%    100.0%      0.0%
 flops    16 x    12 x    12             99348480       0.0%    100.0%      0.0%
 flops inhomo. stacks                           0       0.0%      0.0%      0.0%
 flops total                       260.134776E+06       0.0%    100.0%      0.0%
 flops max/rank                     17.756416E+06       0.0%    100.0%      0.0%
 matmuls inhomo. stacks                         0       0.0%      0.0%      0.0%
 matmuls total                              81976       0.0%    100.0%      0.0%
 number of processed stacks                  3218       0.0%    100.0%      0.0%
 average stack size                                     0.0      25.5       0.0
 marketing flops                   258.905472E+06
 -------------------------------------------------------------------------------
 # multiplications                             57
 max memory usage/rank             311.504896E+06
 # max total images/rank                        1
 # max 3D layers                                1
 # MPI messages exchanged                     736
 MPI messages size (bytes):
  total size                         7.414032E+06
  min size                           0.000000E+00
  max size                         182.400000E+03
  average size                      10.073413E+03
 MPI breakdown and total messages size (bytes):
             size <=      128                 204                     6144
       128 < size <=     8192                 404                   940288
      8192 < size <=    32768                  63                  1345488
     32768 < size <=   131072                  49                  2495552
    131072 < size <=  4194304                  16                  2626560
   4194304 < size <= 16777216                   0                        0
  16777216 < size                               0                        0
 -------------------------------------------------------------------------------
 -                                                                             -
 -                      DBCSR MESSAGE PASSING PERFORMANCE                      -
 -                                                                             -
 -------------------------------------------------------------------------------
 ROUTINE             CALLS      AVE VOLUME [Bytes]
 MP_Group               99
 MP_Bcast               76                      9.
 MP_Allreduce          366                     15.
 MP_Alltoall           545                   3501.
 MP_Wait              1576
 MP_comm_split          28
 MP_ISend              438                   2795.
 MP_IRecv              438                   2709.
 MP_Memory            2128
 -------------------------------------------------------------------------------

 MEMORY| Estimated peak process memory [MiB]                                 299

 -------------------------------------------------------------------------------
 -                                                                             -
 -                         MESSAGE PASSING PERFORMANCE                         -
 -                                                                             -
 -------------------------------------------------------------------------------

 ROUTINE             CALLS      AVE VOLUME [Bytes]
 MP_Group                6
 MP_Bcast              546                9924761.
 MP_Allreduce          530                   4662.
 MP_Sync                14
 MP_Alltoall            54                5262516.
 MP_SendRecv            30                   1092.
 MP_ISendRecv          240                 103856.
 MP_Wait              1336
 MP_comm_split          11
 MP_ISend              943                  66977.
 MP_IRecv              945                  68420.
 MP_Recv                 3                   8192.
 -------------------------------------------------------------------------------


 -------------------------------------------------------------------------------
 -                                                                             -
 -                           R E F E R E N C E S                               -
 -                                                                             -
 -------------------------------------------------------------------------------
 
 CP2K version 7.1, the CP2K developers group (2019).
 CP2K is freely available from https://www.cp2k.org/ .

 Schuett, Ole; Messmer, Peter; Hutter, Juerg; VandeVondele, Joost. 
 Electronic Structure Calculations on Graphics Processing Units, John
 Wiley & Sons, Ltd, 173-190 (2016). 
 GPU-Accelerated Sparse Matrix-Matrix Multiplication for
 Linear Scaling Density Functional Theory.
 https://dx.doi.org/10.1002/9781118670712.ch8

 Del Ben, M; Schuett, O; Wentz, T; Messmer, P; Hutter, J;
 VandeVondele, J. 
 COMPUTER PHYSICS COMMUNICATIONS, 187, 120-129 (2015). 
 Enabling simulation at the fifth rung of DFT: Large scale RPA
 calculations with excellent time to solution.
 https://dx.doi.org/10.1016/j.cpc.2014.10.021

 Borstnik, U; VandeVondele, J; Weber, V; Hutter, J. 
 PARALLEL COMPUTING, 40 (5-6), 47-58 (2014). 
 Sparse matrix multiplication: The distributed block-compressed sparse
 row library.
 https://dx.doi.org/10.1016/j.parco.2014.03.012

 Hutter, J; Iannuzzi, M; Schiffmann, F; VandeVondele, J. 
 WIREs Comput Mol Sci., 4 (1), 15-25 (2014). 
 CP2K: atomistic simulations of condensed matter systems.
 https://dx.doi.org/10.1002/wcms.1159

 Del Ben, M; Hutter, J; VandeVondele, J. 
 JOURNAL OF CHEMICAL THEORY AND COMPUTATION, 9 (6), 2654-2671 (2013). 
 Electron Correlation in the Condensed Phase from a Resolution of
 Identity Approach Based on the Gaussian and Plane Waves Scheme.
 https://dx.doi.org/10.1021/ct4002202

 Del Ben, M; Hutter, J; VandeVondele, J. 
 JOURNAL OF CHEMICAL THEORY AND COMPUTATION, 8 (11), 4177-4188 (2012). 
 Second-Order Moller-Plesset Perturbation Theory in the Condensed Phase:
 An Efficient and Massively Parallel Gaussian and Plane Waves Approach.
 https://dx.doi.org/10.1021/ct300531w

 Guidon, M; Hutter, J; VandeVondele, J. 
 JOURNAL OF CHEMICAL THEORY AND COMPUTATION, 5 (11), 3010-3021 (2009). 
 Robust Periodic Hartree-Fock Exchange for Large-Scale Simulations Using
 Gaussian Basis Sets.
 https://dx.doi.org/10.1021/ct900494g

 Guidon, M; Schiffmann, F; Hutter, J; VandeVondele, J. 
 JOURNAL OF CHEMICAL PHYSICS, 128 (21), 214104 (2008). 
 Ab initio molecular dynamics using hybrid density functionals.
 https://dx.doi.org/10.1063/1.2931945

 Frigo, M; Johnson, SG. 
 PROCEEDINGS OF THE IEEE, 93 (2), 216-231 (2005). 
 The design and implementation of FFTW3.
 https://dx.doi.org/10.1109/JPROC.2004.840301

 Lippert, G; Hutter, J; Parrinello, M. 
 THEORETICAL CHEMISTRY ACCOUNTS, 103 (2), 124-140 (1999). 
 The Gaussian and augmented-plane-wave density functional method for ab
 initio molecular dynamics simulations.
 https://dx.doi.org/10.1007/s002140050523

 Krack, M; Parrinello, M. 
 PHYSICAL CHEMISTRY CHEMICAL PHYSICS, 2 (10), 2105-2112 (2000). 
 All-electron ab-initio molecular dynamics.
 https://dx.doi.org/10.1039/b001167n

 Martyna, GJ; Tuckerman, ME. 
 JOURNAL OF CHEMICAL PHYSICS, 110 (6), 2810-2821 (1999). 
 A reciprocal space based method for treating long range interactions in
 ab initio and force-field-based calculations in clusters.
 https://dx.doi.org/10.1063/1.477923

 Perdew, JP; Burke, K; Ernzerhof, M. 
 PHYSICAL REVIEW LETTERS, 77 (18), 3865-3868 (1996). 
 Generalized gradient approximation made simple.
 https://dx.doi.org/10.1103/PhysRevLett.77.3865


 -------------------------------------------------------------------------------
 -                                                                             -
 -                                T I M I N G                                  -
 -                                                                             -
 -------------------------------------------------------------------------------
 SUBROUTINE                       CALLS  ASD         SELF TIME        TOTAL TIME
                                MAXIMUM       AVERAGE  MAXIMUM  AVERAGE  MAXIMUM
 CP2K                                 1  1.0    0.008    0.009    2.008    2.009
 qs_energies                          1  2.0    0.000    0.000    1.403    1.403
 qs_ks_build_kohn_sham_matrix         2  6.0    0.000    0.001    0.695    0.695
 scf_env_do_scf                       1  3.0    0.000    0.000    0.622    0.622
 scf_env_do_scf_inner_loop            1  4.0    0.000    0.000    0.622    0.622
 mp2_main                             1  3.0    0.000    0.000    0.611    0.611
 qs_ks_update_qs_env                  1  5.0    0.000    0.000    0.538    0.538
 rebuild_ks_matrix                    1  6.0    0.000    0.000    0.538    0.538
 pw_transfer                         43  8.7    0.002    0.002    0.505    0.512
 fft_wrap_pw1pw2                     35 10.0    0.000    0.000    0.494    0.500
 mp2_gpw_main                         1  4.0    0.000    0.000    0.447    0.447
 fft_wrap_pw1pw2_250                 18 10.9    0.032    0.033    0.400    0.407
 rpa_ri_compute_en                    1  5.0    0.000    0.000    0.381    0.381
 rpa_num_int                          1  6.0    0.000    0.001    0.378    0.379
 fft3d_ps                            35 12.0    0.248    0.255    0.361    0.369
 create_qs_kind_set                   1  2.0    0.000    0.000    0.367    0.368
 read_qs_kind                         2  3.0    0.202    0.240    0.367    0.368
 GW_matrix_operations               125  7.0    0.001    0.001    0.252    0.264
 qs_vxc_create                        2  7.0    0.000    0.000    0.246    0.246
 xc_vxc_pw_create                     1  9.0    0.003    0.003    0.246    0.246
 qs_init_subsys                       1  2.0    0.002    0.002    0.222    0.222
 qs_env_setup                         1  3.0    0.000    0.000    0.213    0.213
 qs_env_rebuild_pw_env                2  3.5    0.000    0.000    0.212    0.213
 pw_env_rebuild                       1  5.0    0.001    0.001    0.212    0.212
 calc_vec_W_gw                      125  8.0    0.080    0.089    0.191    0.206
 pw_grid_setup                        6  6.0    0.001    0.001    0.194    0.194
 pw_grid_setup_internal               6  7.0    0.003    0.003    0.193    0.193
 parser_read_line                 66732  4.0    0.013    0.015    0.168    0.188
 parser_read_line_low                72  5.0    0.016    0.081    0.155    0.176
 cp_gemm                            251  9.5    0.000    0.000    0.164    0.173
 cp_gemm_fm_gemm                    251 10.5    0.000    0.000    0.163    0.173
 cp_fm_gemm                         251 11.5    0.163    0.173    0.163    0.173
 qs_rho_update_rho                    2  5.0    0.000    0.000    0.170    0.170
 calculate_rho_elec                   2  6.0    0.005    0.005    0.169    0.170
 broadcast_input_information         72  6.0    0.000    0.000    0.139    0.165
 rs_pw_transfer                      24  8.9    0.000    0.000    0.163    0.165
 compute_vec_Sigma_x_minus_vxc_       1  4.0    0.000    0.000    0.160    0.160
 pw_grid_sort                         6  8.0    0.114    0.116    0.156    0.158
 density_rs2pw                        2  7.0    0.000    0.000    0.153    0.155
 xc_rho_set_and_dset_create           1 10.0    0.001    0.001    0.140    0.148
 pw_poisson_solve                     3  6.0    0.018    0.019    0.141    0.141
 init_scf_run                         1  3.0    0.000    0.000    0.133    0.133
 rpa_num_int_RPA_matrix_operati     125  7.0    0.001    0.001    0.121    0.133
 scf_env_initial_rho_setup            1  4.0    0.000    0.000    0.131    0.131
 mp_bcast_i                         340  7.3    0.078    0.121    0.078    0.121
 pw_poisson_rebuild                   3  7.0    0.001    0.002    0.113    0.115
 MTin_create_screen_fn                1 10.0    0.003    0.004    0.111    0.113
 sum_up_and_integrate                 2  7.0    0.001    0.001    0.105    0.105
 integrate_v_rspace                   2  8.0    0.002    0.002    0.105    0.105
 prepare_gapw_den                     2  7.0    0.000    0.000    0.103    0.103
 potential_pw2rs                      2  9.0    0.000    0.000    0.102    0.102
 put_rho0_on_grid                     2  8.0    0.002    0.003    0.094    0.094
 mp_bcast_am                         72  7.0    0.049    0.087    0.060    0.090
 calc_mat_Q                         125  8.0    0.000    0.000    0.076    0.088
 yz_to_x                             18 12.8    0.032    0.034    0.065    0.080
 fft_wrap_pw1pw2_500                  1 13.0    0.007    0.008    0.078    0.079
 contract_S_to_Q                    125  9.0    0.000    0.001    0.066    0.077
 rs_pw_transfer_RS2PW_250             4  9.5    0.044    0.045    0.071    0.073
 rs_pw_transfer_PW2RS_250             4 10.0    0.042    0.043    0.069    0.072
 xc_functional_eval                   5 10.7    0.000    0.000    0.065    0.071
 pbe_lda_eval                         5 11.7    0.065    0.071    0.065    0.071
 mp_alltoall_z22v                    35 14.0    0.051    0.068    0.051    0.068
 mp2_ri_gpw_compute_in                1  5.0    0.000    0.000    0.065    0.065
 pw_gather_p                         18 11.8    0.061    0.063    0.061    0.063
 mp2_ri_gpw_compute_in_loop           1  6.0    0.000    0.000    0.061    0.061
 x_to_yz                             17 13.2    0.029    0.031    0.047    0.048
 cp_fm_cholesky_invert              125  8.0    0.043    0.046    0.043    0.046
 mp_waitany                          64 10.8    0.041    0.045    0.041    0.045
 integrate_vhg0_rspace                2  7.0    0.001    0.001    0.044    0.044
 sort_shells                          6  9.0    0.042    0.043    0.042    0.043
 -------------------------------------------------------------------------------

 The number of warnings for this run is : 1
 
 -------------------------------------------------------------------------------
  **** **** ******  **  PROGRAM ENDED AT                 2021-07-19 08:51:22.870
 ***** ** ***  *** **   PROGRAM RAN ON                                     n1032
 **    ****   ******    PROGRAM RAN BY                                 ka_bh5670
 ***** **    ** ** **   PROGRAM PROCESS ID                               1355339
  **** **  *******  **  PROGRAM STOPPED IN /tmp/ka_bh5670.3062157/bh5670/sim/000
                                           004
